LAMMPS 2005 data file for finalStructure

    725 atoms
    715 bonds
   1410 angles
   2025 dihedrals
      0 impropers

   4 atom types
   6 bond types
  13 angle types
  15 dihedral types

    -1.048520803    72.310592651 xlo xhi
    -2.929963827    33.457996368 ylo yhi
    -2.988895416    13.001481056 zlo zhi

Masses

   1  12.011150
   2  14.006700
   3  12.011150
   4   1.007970

Pair Coeffs

   1   0.0389999952   3.8754094636 
   2   0.1669999743   3.5012320066 
   3   0.0389999952   3.8754094636 
   4   0.0380000011   2.4499714540 

Bond Coeffs

  1   322.7158     1.5260 
  2   340.6175     1.1050 
  3   377.5752     1.4600 
  4   377.5752     1.4600 
  5   340.6175     1.1050 
  6   322.7158     1.5260 

Angle Coeffs

  1    46.6000   110.5000 
  2    44.4000   110.0000 
  3    39.5000   106.4000 
  4    50.0000   109.5000 
  5    51.5000   109.5000 
  6    37.0000   120.0000 
  7    37.0000   120.0000 
  8    51.5000   109.5000 
  9    39.5000   106.4000 
 10    46.6000   110.5000 
 11    44.4000   110.0000 
 12    44.4000   110.0000 
 13    37.0000   120.0000 

Dihedral Coeffs

  1     0.1581     1.0000     3.0000 
  2     0.1581     1.0000     3.0000 
  3     0.1581     1.0000     3.0000 
  4     0.1581     1.0000     3.0000 
  5     0.1581     1.0000     3.0000 
  6     0.0000     1.0000     0.0000 
  7     0.0000     1.0000     0.0000 
  8     0.0000     1.0000     0.0000 
  9     0.0000     1.0000     0.0000 
 10     0.1581     1.0000     3.0000 
 11     0.1581     1.0000     3.0000 
 12     0.1581     1.0000     3.0000 
 13     0.1581     1.0000     3.0000 
 14     0.0000     1.0000     0.0000 
 15     0.0000     1.0000     0.0000 

Atoms

      1      0   1 -0.106000     4.940383911     0.510253906    -1.102188468
      2      0   1 -0.106000     6.277036190     1.378805757    -1.225736499
      3      0   1 -0.106000     7.433429718     0.523657382    -1.085831285
      4      0   1 -0.106000     8.772689819     1.398283243    -1.182287931
      5      0   1 -0.106000     9.931784630     0.549208879    -1.013289332
      6      0   1 -0.106000    11.270523071     1.424774408    -1.100779533
      7      0   1 -0.106000    12.429139137     0.576639593    -0.921813488
      8      0   1 -0.106000    13.768857002     1.446318150    -1.023243904
      9      0   1 -0.106000    14.922192574     0.588916540    -0.860503197
     10      0   1 -0.106000    16.264554977     1.444879413    -0.993778765
     11      0   1 -0.106000    17.409887314     0.573076606    -0.856378317
     12      0   1  0.301100    18.761505127     1.428722978    -1.025192022
     13      0   2 -0.628400    19.953226089     0.676703453    -0.924624741
     14      0   3  0.248100    19.829725266    -0.378970742    -1.973187923
     15      0   3  0.248100    20.158668518     0.060951710     0.415390968
     16      0   3  0.248100    21.145994186     1.647247553    -1.125692129
     17      0   1 -0.106000     3.785797834     1.369410157    -1.208046556
     18      0   1 -0.106000     2.451430321     0.503926396    -1.060419321
     19      0   1 -0.106000     1.298883319     1.365148783    -1.146205068
     20      0   3 -0.159000    -0.031600129     0.506865561    -0.988410115
     21      0   4  0.053000    -0.847542465     1.154568434    -1.051776767
     22      0   4  0.053000     0.000000000     0.000000000     0.000000000
     23      0   4  0.053000    -0.248226881    -0.262903720    -1.796498299
     24      0   4  0.053000     1.236061931     1.878035665    -2.132050037
     25      0   4  0.053000     1.480054379     2.139688015    -0.339741588
     26      0   4  0.053000     2.502440453    -0.008706465    -0.073117539
     27      0   4  0.053000     2.266286850    -0.269860387    -1.868063688
     28      0   4  0.053000     3.743543625     1.880599976    -2.196944952
     29      0   4  0.053000     3.966097593     2.145891190    -0.401623189
     30      0   4  0.053000     4.974660873    -0.001434594    -0.113655820
     31      0   4  0.053000     4.770071030    -0.264601856    -1.909153223
     32      0   4  0.053000     6.437536716     2.157046318    -0.421219319
     33      0   4  0.053000     6.254318237     1.886232376    -2.215737104
     34      0   4  0.053000     7.284893036    -0.253834963    -1.889799953
     35      0   4  0.053000     7.448216915     0.015732199    -0.095194757
     36      0   4  0.053000     8.913316727     2.179285049    -0.382677436
     37      0   4  0.053000     8.766364098     1.900757790    -2.175533533
     38      0   4  0.053000     9.795954704    -0.234487057    -1.812680244
     39      0   4  0.053000     9.933080673     0.046422899    -0.021273464
     40      0   4  0.053000    11.404391289     2.210349560    -0.303476691
     41      0   4  0.053000    11.270880699     1.923677444    -2.094717503
     42      0   4  0.053000    12.290284157    -0.212252975    -1.715349197
     43      0   4  0.053000    12.433112144     0.081993818     0.074321061
     44      0   4  0.053000    13.916595459     2.235771656    -0.231299102
     45      0   4  0.053000    13.759792328     1.939650416    -2.020610809
     46      0   4  0.053000    14.760474205    -0.205417514    -1.648093939
     47      0   4  0.053000    14.939744949     0.102094531     0.140249550
     48      0   4  0.053000    16.437175751     2.238896847    -0.205688298
     49      0   4  0.053000    16.237201691     1.933081865    -1.993981600
     50      0   4  0.053000    17.198877335    -0.218361855    -1.642232656
     51      0   4  0.053000    17.422128677     0.095900059     0.145129859
     52      0   4  0.053000    18.905847549     2.239970207    -0.250385046
     53      0   4  0.053000    18.673469543     1.926086903    -2.021183491
     54      0   4  0.053000    21.047821045     2.129021406    -2.127142429
     55      0   4  0.053000    22.071182251     1.146112323    -1.061314583
     56      0   4  0.053000    21.293218613     2.457679749    -0.351751924
     57      0   4  0.053000    19.334934235    -0.741686583     0.591415048
     58      0   4  0.053000    20.227483749     0.827446461     1.224696875
     59      0   4  0.053000    21.096696854    -0.418519378     0.514321208
     60      0   4  0.053000    19.010231018    -1.192256689    -1.819945335
     61      0   4  0.053000    20.760547638    -0.866644859    -1.955502629
     62      0   4  0.053000    19.638431549     0.050101995    -2.988895416
     63      0   3 -0.159000    24.880174637     0.365341961    -1.062600970
     64      0   1 -0.106000    26.120883942     1.398921847    -1.251132488
     65      0   1 -0.106000    26.655662537     0.594504714    -1.144282818
     66      0   1 -0.106000    27.902078629     1.655916333    -1.337115765
     67      0   1 -0.106000    28.471450806     0.919456244    -1.305212021
     68      0   1 -0.106000    28.996412277     0.437708497     0.135038376
     69      0   1 -0.106000    29.695728302    -0.105490088     0.127517343
     70      0   1 -0.106000    30.309709549    -0.520180225     1.569780350
     71      0   1 -0.106000    31.156137466    -0.836228848     1.550486326
     72      0   1 -0.106000    31.931064606    -1.101698399     3.003894329
     73      0   1 -0.106000    32.973957062    -1.051530123     2.965444326
     74      0   1  0.301100    33.948654175    -1.083305359     4.433380604
     75      0   2 -0.628400    35.179367065    -0.649890184     4.519277096
     76      0   3  0.248100    34.782287598    -1.763810158     3.537155628
     77      0   3  0.248100    36.016819000    -0.709883213     5.984189034
     78      0   1  0.301100    35.985908508     0.888774157     4.137234688
     79      0   1 -0.106000    36.582721710     2.216035843     5.142562866
     80      0   1 -0.106000    36.814388275     3.610104561     4.432764530
     81      0   1 -0.106000    35.463657379     3.265681982     3.359882593
     82      0   1 -0.106000    35.575160980     4.655631065     2.834926844
     83      0   1 -0.106000    34.160270691     4.177787304     1.925798178
     84      0   1 -0.106000    34.168186188     5.513679504     1.444254398
     85      0   1 -0.106000    32.732715607     4.971441269     0.658134460
     86      0   1 -0.106000    32.698005676     6.283667564     0.211792707
     87      0   1 -0.106000    31.261318207     5.719744682    -0.497422099
     88      0   1 -0.106000    31.206272125     7.017446518    -0.931700349
     89      0   3 -0.159000    29.778099060     6.450302124    -1.611662745
     90      0   4  0.053000    24.518646240     0.980945587    -1.146404147
     91      0   4  0.053000    25.119703293     0.000000000     0.000000000
     92      0   4  0.053000    24.071182251    -0.642597079    -1.901327014
     93      0   4  0.053000    26.903963089     2.409138441    -0.415312916
     94      0   4  0.053000    25.859004974     1.770103693    -2.309917450
     95      0   4  0.053000    25.870075226    -0.412490010    -1.985584021
     96      0   4  0.053000    26.907520294     0.225519836    -0.085218906
     97      0   4  0.053000    28.691082001     2.664675474    -0.498783648
     98      0   4  0.053000    27.631603241     2.039300919    -2.388493061
     99      0   4  0.053000    29.320438385     1.773207664    -1.527514219
    100      0   4  0.053000    27.703123093    -0.066935301    -2.167102814
    101      0   4  0.053000    28.165603638    -0.473654032     0.363053530
    102      0   4  0.053000    29.735164642     1.428527951     0.985343933
    103      0   4  0.053000    30.514150620     0.833430886    -0.113385677
    104      0   4  0.053000    28.982530594    -1.092154741    -0.720940471
    105      0   4  0.053000    29.515356064    -1.509244204     1.813108563
    106      0   4  0.053000    30.978935242     0.458846927     2.410615444
    107      0   4  0.053000    31.897644043     0.187713146     1.264396667
    108      0   4  0.053000    30.528881073    -1.809030533     0.722542822
    109      0   4  0.053000    31.241853714    -2.180223465     3.290127754
    110      0   4  0.053000    32.479221344    -0.159574747     3.822762012
    111      0   4  0.053000    33.535160065     0.029374599     2.616820574
    112      0   4  0.053000    32.475406647    -1.968895912     2.154705763
    113      0   4  0.053000    33.376209259    -2.230335236     4.716324806
    114      0   4  0.053000    34.242839813    -0.328136444     5.242870331
    115      0   4  0.053000    35.384422302     0.902971983     3.023538828
    116      0   4  0.053000    36.836002350     1.137558222     4.114070892
    117      0   4  0.053000    37.529907227     2.521326065     6.081090927
    118      0   4  0.053000    35.930217743     1.901719332     5.566766739
    119      0   4  0.053000    37.446388245     4.029112816     3.933703661
    120      0   4  0.053000    37.352050781     4.506252289     5.294259548
    121      0   4  0.053000    34.852310181     2.749450922     3.907775402
    122      0   4  0.053000    34.924674988     2.458402872     2.422749281
    123      0   4  0.053000    36.120758057     5.186046600     2.213875771
    124      0   4  0.053000    36.132904053     5.483889580     3.771167994
    125      0   4  0.053000    33.643039703     3.619039536     2.578390121
    126      0   4  0.053000    33.585281372     3.351748943     0.978295684
    127      0   4  0.053000    34.633522034     6.067634583     0.743357778
    128      0   4  0.053000    34.764530182     6.343542576     2.397333860
    129      0   4  0.053000    32.289379120     4.408822536     1.380221486
    130      0   4  0.053000    32.120895386     4.139153481    -0.298987627
    131      0   4  0.053000    33.108566284     6.837134838    -0.537194729
    132      0   4  0.053000    33.325889587     7.121589661     1.171178341
    133      0   4  0.053000    30.869060516     5.172276974     0.267928720
    134      0   4  0.053000    30.622039795     4.874025822    -1.454958081
    135      0   4  0.053000    31.588050842     7.569604397    -1.704614520
    136      0   4  0.053000    31.844982147     7.866023064     0.022791028
    137      0   4  0.053000    29.118644714     5.613963127    -2.581224680
    138      0   4  0.053000    29.765132904     7.410686493    -1.914289832
    139      0   4  0.053000    29.382709503     5.914638996    -0.848095059
    140      0   4  0.053000    35.465312958    -1.863105536     6.261018753
    141      0   4  0.053000    36.314704895     0.061335325     6.787888527
    142      0   4  0.053000    36.945865631    -0.385584831     6.103272915
    143      0   4  0.053000    34.162456512    -2.929963827     3.759459019
    144      0   4  0.053000    35.675449371    -1.526513100     3.644936562
    145      0   4  0.053000    34.200618744    -1.735805511     2.407398701
    146      0   1 -0.106000    55.179790497     0.510253906    -1.102188468
    147      0   1 -0.106000    56.516441345     1.378805757    -1.225736499
    148      0   1 -0.106000    57.672836304     0.523657382    -1.085831285
    149      0   1 -0.106000    59.012096405     1.398283243    -1.182287931
    150      0   1 -0.106000    60.171192169     0.549208879    -1.013289332
    151      0   1 -0.106000    61.509929657     1.424774408    -1.100779533
    152      0   1 -0.106000    62.668544769     0.576639593    -0.921813488
    153      0   1 -0.106000    64.008262634     1.446318150    -1.023243904
    154      0   1 -0.106000    65.161598206     0.588916540    -0.860503197
    155      0   1 -0.106000    66.503959656     1.444879413    -0.993778765
    156      0   1 -0.106000    67.649291992     0.573076606    -0.856378317
    157      0   1  0.301100    69.000915527     1.428722978    -1.025192022
    158      0   2 -0.628400    70.192634583     0.676703453    -0.924624741
    159      0   3  0.248100    70.069129944    -0.378970742    -1.973187923
    160      0   3  0.248100    70.398071289     0.060951710     0.415390968
    161      0   3  0.248100    71.385398865     1.647247553    -1.125692129
    162      0   1 -0.106000    54.025203705     1.369410157    -1.208046556
    163      0   1 -0.106000    52.690837860     0.503926396    -1.060419321
    164      0   1 -0.106000    51.538288116     1.365148783    -1.146205068
    165      0   3 -0.159000    50.207805634     0.506865561    -0.988410115
    166      0   4  0.053000    49.391864777     1.154568434    -1.051776767
    167      0   4  0.053000    50.239406586     0.000000000     0.000000000
    168      0   4  0.053000    49.991180420    -0.262903720    -1.796498299
    169      0   4  0.053000    51.475467682     1.878035665    -2.132050037
    170      0   4  0.053000    51.719459534     2.139688015    -0.339741588
    171      0   4  0.053000    52.741847992    -0.008706465    -0.073117539
    172      0   4  0.053000    52.505691528    -0.269860387    -1.868063688
    173      0   4  0.053000    53.982948303     1.880599976    -2.196944952
    174      0   4  0.053000    54.205505371     2.145891190    -0.401623189
    175      0   4  0.053000    55.214065552    -0.001434594    -0.113655820
    176      0   4  0.053000    55.009475708    -0.264601856    -1.909153223
    177      0   4  0.053000    56.676944733     2.157046318    -0.421219319
    178      0   4  0.053000    56.493724823     1.886232376    -2.215737104
    179      0   4  0.053000    57.524299622    -0.253834963    -1.889799953
    180      0   4  0.053000    57.687622070     0.015732199    -0.095194757
    181      0   4  0.053000    59.152725220     2.179285049    -0.382677436
    182      0   4  0.053000    59.005771637     1.900757790    -2.175533533
    183      0   4  0.053000    60.035362244    -0.234487057    -1.812680244
    184      0   4  0.053000    60.172485352     0.046422899    -0.021273464
    185      0   4  0.053000    61.643798828     2.210349560    -0.303476691
    186      0   4  0.053000    61.510288239     1.923677444    -2.094717503
    187      0   4  0.053000    62.529689789    -0.212252975    -1.715349197
    188      0   4  0.053000    62.672519684     0.081993818     0.074321061
    189      0   4  0.053000    64.156005859     2.235771656    -0.231299102
    190      0   4  0.053000    63.999198914     1.939650416    -2.020610809
    191      0   4  0.053000    64.999877930    -0.205417514    -1.648093939
    192      0   4  0.053000    65.179153442     0.102094531     0.140249550
    193      0   4  0.053000    66.676582336     2.238896847    -0.205688298
    194      0   4  0.053000    66.476608276     1.933081865    -1.993981600
    195      0   4  0.053000    67.438285828    -0.218361855    -1.642232656
    196      0   4  0.053000    67.661537170     0.095900059     0.145129859
    197      0   4  0.053000    69.145256042     2.239970207    -0.250385046
    198      0   4  0.053000    68.912872314     1.926086903    -2.021183491
    199      0   4  0.053000    71.287231445     2.129021406    -2.127142429
    200      0   4  0.053000    72.310592651     1.146112323    -1.061314583
    201      0   4  0.053000    71.532623291     2.457679749    -0.351751924
    202      0   4  0.053000    69.574340820    -0.741686583     0.591415048
    203      0   4  0.053000    70.466888428     0.827446461     1.224696875
    204      0   4  0.053000    71.336105347    -0.418519378     0.514321208
    205      0   4  0.053000    69.249633789    -1.192256689    -1.819945335
    206      0   4  0.053000    70.999954224    -0.866644859    -1.955502629
    207      0   4  0.053000    69.877838135     0.050101995    -2.988895416
    208      0   3 -0.159000    -0.239528611    13.161329269    -1.062600970
    209      0   1 -0.106000     1.001179934    14.194909096    -1.251132488
    210      0   1 -0.106000     1.535959721    13.390491486    -1.144282818
    211      0   1 -0.106000     2.782374859    14.451903343    -1.337115765
    212      0   1 -0.106000     3.351746559    13.715443611    -1.305212021
    213      0   1 -0.106000     3.876709700    13.233695984     0.135038376
    214      0   1 -0.106000     4.576024055    12.690497398     0.127517343
    215      0   1 -0.106000     5.190006256    12.275806427     1.569780350
    216      0   1 -0.106000     6.036434650    11.959758759     1.550486326
    217      0   1 -0.106000     6.811361790    11.694288254     3.003894329
    218      0   1 -0.106000     7.854252815    11.744457245     2.965444326
    219      0   1  0.301100     8.828949928    11.712681770     4.433380604
    220      0   2 -0.628400    10.059661865    12.146097183     4.519277096
    221      0   3  0.248100     9.662585258    11.032176971     3.537155628
    222      0   3  0.248100    10.897116661    12.086103439     5.984189034
    223      0   1  0.301100    10.866206169    13.684761047     4.137234688
    224      0   1 -0.106000    11.463019371    15.012022972     5.142562866
    225      0   1 -0.106000    11.694685936    16.406091690     4.432764530
    226      0   1 -0.106000    10.343953133    16.061668396     3.359882593
    227      0   1 -0.106000    10.455457687    17.451618195     2.834926844
    228      0   1 -0.106000     9.040566444    16.973773956     1.925798178
    229      0   1 -0.106000     9.048482895    18.309665680     1.444254398
    230      0   1 -0.106000     7.613010883    17.767429352     0.658134460
    231      0   1 -0.106000     7.578303814    19.079654694     0.211792707
    232      0   1 -0.106000     6.141613960    18.515731812    -0.497422099
    233      0   1 -0.106000     6.086569309    19.813434601    -0.931700349
    234      0   3 -0.159000     4.658395290    19.246288300    -1.611662745
    235      0   4  0.053000    -0.601057589    13.776932716    -1.146404147
    236      0   4  0.053000     0.000000000    12.795987129     0.000000000
    237      0   4  0.053000    -1.048520803    12.153389931    -1.901327014
    238      0   4  0.053000     1.784259081    15.205125809    -0.415312916
    239      0   4  0.053000     0.739302456    14.566090584    -2.309917450
    240      0   4  0.053000     0.750372469    12.383497238    -1.985584021
    241      0   4  0.053000     1.787817597    13.021507263    -0.085218906
    242      0   4  0.053000     3.571377993    15.460662842    -0.498783648
    243      0   4  0.053000     2.511899471    14.835288048    -2.388493061
    244      0   4  0.053000     4.200734615    14.569194794    -1.527514219
    245      0   4  0.053000     2.583419323    12.729051590    -2.167102814
    246      0   4  0.053000     3.045899868    12.322333336     0.363053530
    247      0   4  0.053000     4.615462303    14.224514961     0.985343933
    248      0   4  0.053000     5.394447803    13.629418373    -0.113385677
    249      0   4  0.053000     3.862827063    11.703832626    -0.720940471
    250      0   4  0.053000     4.395652294    11.286743164     1.813108563
    251      0   4  0.053000     5.859232903    13.254834175     2.410615444
    252      0   4  0.053000     6.777940273    12.983699799     1.264396667
    253      0   4  0.053000     5.409176826    10.986956596     0.722542822
    254      0   4  0.053000     6.122150898    10.615763664     3.290127754
    255      0   4  0.053000     7.359518528    12.636412621     3.822762012
    256      0   4  0.053000     8.415457726    12.825361252     2.616820574
    257      0   4  0.053000     7.355701923    10.827091217     2.154705763
    258      0   4  0.053000     8.256505966    10.565651894     4.716324806
    259      0   4  0.053000     9.123135567    12.467850685     5.242870331
    260      0   4  0.053000    10.264720917    13.698959351     3.023538828
    261      0   4  0.053000    11.716298103    13.933545113     4.114070892
    262      0   4  0.053000    12.410204887    15.317313194     6.081090927
    263      0   4  0.053000    10.810514450    14.697706223     5.566766739
    264      0   4  0.053000    12.326683998    16.825099945     3.933703661
    265      0   4  0.053000    12.232345581    17.302238464     5.294259548
    266      0   4  0.053000     9.732606888    15.545437813     3.907775402
    267      0   4  0.053000     9.804970741    15.254389763     2.422749281
    268      0   4  0.053000    11.001055717    17.982032776     2.213875771
    269      0   4  0.053000    11.013199806    18.279876709     3.771167994
    270      0   4  0.053000     8.523335457    16.415027618     2.578390121
    271      0   4  0.053000     8.465577126    16.147735596     0.978295684
    272      0   4  0.053000     9.513816833    18.863620758     0.743357778
    273      0   4  0.053000     9.644825935    19.139530182     2.397333860
    274      0   4  0.053000     7.169676781    17.204809189     1.380221486
    275      0   4  0.053000     7.001190186    16.935140610    -0.298987627
    276      0   4  0.053000     7.988863468    19.633121490    -0.537194729
    277      0   4  0.053000     8.206184387    19.917575836     1.171178341
    278      0   4  0.053000     5.749356270    17.968263626     0.267928720
    279      0   4  0.053000     5.502336025    17.670013428    -1.454958081
    280      0   4  0.053000     6.468348026    20.365591049    -1.704614520
    281      0   4  0.053000     6.725277901    20.662010193     0.022791028
    282      0   4  0.053000     3.998941898    18.409950256    -2.581224680
    283      0   4  0.053000     4.645428658    20.206672668    -1.914289832
    284      0   4  0.053000     4.263005733    18.710626602    -0.848095059
    285      0   4  0.053000    10.345609665    10.932881355     6.261018753
    286      0   4  0.053000    11.195002556    12.857322693     6.787888527
    287      0   4  0.053000    11.826162338    12.410402298     6.103272915
    288      0   4  0.053000     9.042752266     9.866023064     3.759459019
    289      0   4  0.053000    10.555745125    11.269474030     3.644936562
    290      0   4  0.053000     9.080915451    11.060181618     2.407398701
    291      0   3 -0.159000    24.880174637    13.161329269    -1.062600970
    292      0   1 -0.106000    26.120883942    14.194909096    -1.251132488
    293      0   1 -0.106000    26.655662537    13.390491486    -1.144282818
    294      0   1 -0.106000    27.902078629    14.451903343    -1.337115765
    295      0   1 -0.106000    28.471450806    13.715443611    -1.305212021
    296      0   1 -0.106000    28.996412277    13.233695984     0.135038376
    297      0   1 -0.106000    29.695728302    12.690497398     0.127517343
    298      0   1 -0.106000    30.309709549    12.275806427     1.569780350
    299      0   1 -0.106000    31.156137466    11.959758759     1.550486326
    300      0   1 -0.106000    31.931064606    11.694288254     3.003894329
    301      0   1 -0.106000    32.973957062    11.744457245     2.965444326
    302      0   1  0.301100    33.948654175    11.712681770     4.433380604
    303      0   2 -0.628400    35.179367065    12.146097183     4.519277096
    304      0   3  0.248100    34.782287598    11.032176971     3.537155628
    305      0   3  0.248100    36.016819000    12.086103439     5.984189034
    306      0   1  0.301100    35.985908508    13.684761047     4.137234688
    307      0   1 -0.106000    36.582721710    15.012022972     5.142562866
    308      0   1 -0.106000    36.814388275    16.406091690     4.432764530
    309      0   1 -0.106000    35.463657379    16.061668396     3.359882593
    310      0   1 -0.106000    35.575160980    17.451618195     2.834926844
    311      0   1 -0.106000    34.160270691    16.973773956     1.925798178
    312      0   1 -0.106000    34.168186188    18.309665680     1.444254398
    313      0   1 -0.106000    32.732715607    17.767429352     0.658134460
    314      0   1 -0.106000    32.698005676    19.079654694     0.211792707
    315      0   1 -0.106000    31.261318207    18.515731812    -0.497422099
    316      0   1 -0.106000    31.206272125    19.813434601    -0.931700349
    317      0   3 -0.159000    29.778099060    19.246288300    -1.611662745
    318      0   4  0.053000    24.518646240    13.776932716    -1.146404147
    319      0   4  0.053000    25.119703293    12.795987129     0.000000000
    320      0   4  0.053000    24.071182251    12.153389931    -1.901327014
    321      0   4  0.053000    26.903963089    15.205125809    -0.415312916
    322      0   4  0.053000    25.859004974    14.566090584    -2.309917450
    323      0   4  0.053000    25.870075226    12.383497238    -1.985584021
    324      0   4  0.053000    26.907520294    13.021507263    -0.085218906
    325      0   4  0.053000    28.691082001    15.460662842    -0.498783648
    326      0   4  0.053000    27.631603241    14.835288048    -2.388493061
    327      0   4  0.053000    29.320438385    14.569194794    -1.527514219
    328      0   4  0.053000    27.703123093    12.729051590    -2.167102814
    329      0   4  0.053000    28.165603638    12.322333336     0.363053530
    330      0   4  0.053000    29.735164642    14.224514961     0.985343933
    331      0   4  0.053000    30.514150620    13.629418373    -0.113385677
    332      0   4  0.053000    28.982530594    11.703832626    -0.720940471
    333      0   4  0.053000    29.515356064    11.286743164     1.813108563
    334      0   4  0.053000    30.978935242    13.254834175     2.410615444
    335      0   4  0.053000    31.897644043    12.983699799     1.264396667
    336      0   4  0.053000    30.528881073    10.986956596     0.722542822
    337      0   4  0.053000    31.241853714    10.615763664     3.290127754
    338      0   4  0.053000    32.479221344    12.636412621     3.822762012
    339      0   4  0.053000    33.535160065    12.825361252     2.616820574
    340      0   4  0.053000    32.475406647    10.827091217     2.154705763
    341      0   4  0.053000    33.376209259    10.565651894     4.716324806
    342      0   4  0.053000    34.242839813    12.467850685     5.242870331
    343      0   4  0.053000    35.384422302    13.698959351     3.023538828
    344      0   4  0.053000    36.836002350    13.933545113     4.114070892
    345      0   4  0.053000    37.529907227    15.317313194     6.081090927
    346      0   4  0.053000    35.930217743    14.697706223     5.566766739
    347      0   4  0.053000    37.446388245    16.825099945     3.933703661
    348      0   4  0.053000    37.352050781    17.302238464     5.294259548
    349      0   4  0.053000    34.852310181    15.545437813     3.907775402
    350      0   4  0.053000    34.924674988    15.254389763     2.422749281
    351      0   4  0.053000    36.120758057    17.982032776     2.213875771
    352      0   4  0.053000    36.132904053    18.279876709     3.771167994
    353      0   4  0.053000    33.643039703    16.415027618     2.578390121
    354      0   4  0.053000    33.585281372    16.147735596     0.978295684
    355      0   4  0.053000    34.633522034    18.863620758     0.743357778
    356      0   4  0.053000    34.764530182    19.139530182     2.397333860
    357      0   4  0.053000    32.289379120    17.204809189     1.380221486
    358      0   4  0.053000    32.120895386    16.935140610    -0.298987627
    359      0   4  0.053000    33.108566284    19.633121490    -0.537194729
    360      0   4  0.053000    33.325889587    19.917575836     1.171178341
    361      0   4  0.053000    30.869060516    17.968263626     0.267928720
    362      0   4  0.053000    30.622039795    17.670013428    -1.454958081
    363      0   4  0.053000    31.588050842    20.365591049    -1.704614520
    364      0   4  0.053000    31.844982147    20.662010193     0.022791028
    365      0   4  0.053000    29.118644714    18.409950256    -2.581224680
    366      0   4  0.053000    29.765132904    20.206672668    -1.914289832
    367      0   4  0.053000    29.382709503    18.710626602    -0.848095059