ITEM: TIMESTEP
190000
ITEM: NUMBER OF ATOMS
19593
ITEM: BOX BOUNDS pp pp ff
2.6855944499539630e+00 5.7314067986679163e+01
2.7267335031000002e+00 5.7274655099671186e+01
-2.7564968999999988e-03 1.0725626699858890e+02
ITEM: ATOMS id type x y z xs ys zs ix iy iz vx vy vz fx fy fz
1 1 50.7636 22.1548 55.799 0.880091 0.356165 0.520252 -1 0 0 -0.00351478 -0.00234056 -0.00373166 38.2971 20.9875 -17.1231
2 1 51.1874 20.7354 55.5985 0.887848 0.330145 0.518383 -1 0 0 0.00266431 0.00158743 0.00495368 -31.7912 18.3487 -35.1893
3 1 51.9614 20.9571 54.2983 0.902016 0.334209 0.506261 -1 0 0 -0.00221912 0.00361973 -0.000566523 -43.1801 -31.7122 19.6007
4 1 53.0289 19.922 54.1639 0.921559 0.315231 0.505008 -1 0 0 0.00669749 0.00603168 0.00287578 -0.87583 -9.47874 4.0471
5 1 53.6523 19.5761 55.5397 0.932969 0.308891 0.517835 -1 0 0 0.00771215 -0.00530279 0.00183476 66.147 17.3238 -26.4676
6 1 54.5361 20.7723 55.9759 0.949148 0.33082 0.521902 -1 0 0 0.00331653 -0.00132983 0.000235015 -76.6085 15.8871 -22.9237
7 1 54.4165 21.0712 57.4663 0.946958 0.3363 0.535797 -1 0 0 -0.00401166 0.000609211 -0.00429155 80.0499 -28.2009 43.033
8 1 54.625 19.8161 58.374 0.950775 0.313292 0.54426 -1 0 0 -0.00484779 0.00964722 -0.00937142 6.89946 8.68056 -25.3736
9 1 53.2125 19.4431 58.7967 0.92492 0.306453 0.5482 -1 0 0 -0.00491903 -0.00898515 0.00225654 5.15469 28.4381 -41.9356
10 1 52.9156 17.9631 58.8773 0.919484 0.27932 0.548952 -1 0 0 0.00604482 -0.00108161 -0.00411197 -47.8376 -23.9793 2.05258
11 1 52.9966 17.5148 60.3383 0.920966 0.271102 0.562574 -1 0 0 0.000416172 0.00824709 -0.00678726 -10.5648 11.0804 -7.07757
12 1 52.8116 18.5932 61.3976 0.917581 0.290871 0.572449 -1 0 0 0.00205599 -0.00381011 0.00496894 -4.48132 8.42559 58.6838
13 2 52.8684 17.9685 62.7629 0.918619 0.27942 0.585178 -1 0 0 0.00150529 -0.00226754 0.00157866 12.0733 22.6591 -15.177
14 3 51.8777 16.9331 62.724 0.900484 0.260439 0.584816 -1 0 0 -0.0130144 -0.00198312 0.0057248 -10.8387 25.9108 -4.90151
15 3 52.5242 18.9833 63.7953 0.912319 0.298023 0.594804 -1 0 0 0.00149296 -0.00380586 0.0055578 11.8248 8.66454 -7.21628
16 3 54.1464 17.293 63.1134 0.942014 0.267035 0.588446 -1 0 0 0.00317148 -0.000973693 -0.00619385 29.5172 51.0752 -32.3737
17 1 49.9238 22.7688 54.6866 0.864717 0.367421 0.509881 -1 0 0 0.00140684 0.00382561 0.00513714 8.65937 10.236 -17.9216
18 1 48.8115 21.9014 54.2408 0.844356 0.351519 0.505725 -1 0 0 0.000770515 -0.000414447 -0.000602109 3.42646 -58.1734 -46.5262
19 1 47.5676 22.2196 55.0398 0.821587 0.357352 0.513174 -1 0 0 -0.000117356 0.00609797 -0.00153853 -9.82995 24.3095 -7.05375
20 3 46.3174 21.9264 54.1782 0.798701 0.351979 0.505141 -1 0 0 0.00237073 -0.00296815 -0.00619649 35.9848 31.7896 -16.0097
21 4 46.4478 21.1014 53.4414 0.801088 0.336853 0.498272 -1 0 0 -0.0349079 0.00522316 -0.0151752 -5.00611 0.304104 8.39748
22 4 46.0815 22.8237 53.5861 0.794383 0.368427 0.499621 -1 0 0 -0.00999834 -0.0169529 -0.00635534 9.5105 1.09948 -6.436
23 4 45.4107 21.9099 54.6939 0.782103 0.351675 0.509949 -1 0 0 0.0123681 -0.0209095 0.0162899 -31.3762 -20.8302 29.8418
24 4 47.6413 23.3089 55.4083 0.822936 0.377323 0.51661 -1 0 0 -0.00764399 0.0101123 0.000953247 -8.86373 -28.5272 -14.8117
25 4 47.5791 21.6455 55.9502 0.821797 0.346828 0.521662 -1 0 0 -0.00125357 -0.020443 -0.0167612 -4.39951 -15.6706 15.5994
26 4 49.0854 20.7967 54.0607 0.84937 0.331269 0.504046 -1 0 0 0.000636742 0.0196127 -0.00834392 -6.61095 27.0792 32.9502
27 4 48.6835 22.0448 53.1526 0.842013 0.354149 0.49558 -1 0 0 0.0205973 -0.0154278 -0.022042 -12.5386 19.488 2.28122
28 4 50.5158 22.9803 53.7669 0.875555 0.371299 0.501306 -1 0 0 0.00668943 0.00537767 -6.07927e-05 6.56221 -1.64359 10.0928
29 4 49.4886 23.7463 54.9155 0.856751 0.385341 0.512015 -1 0 0 -0.00259597 -0.0140086 0.0218184 1.85522 6.15078 13.8423
30 4 51.667 22.79 55.897 0.896627 0.36781 0.521166 -1 0 0 -0.015482 -0.0017605 0.00521806 0.280003 -4.09035 -4.78276
31 4 50.3588 22.2681 56.7356 0.872681 0.358243 0.528984 -1 0 0 -0.0149938 0.00196323 0.0083065 -33.21 4.4581 44.3976
32 4 50.1868 20.2137 55.5369 0.869531 0.320579 0.517809 -1 0 0 -0.00491516 0.0181623 -0.0151029 25.6336 -11.5061 -3.77558
33 4 51.8313 20.3923 56.3782 0.899635 0.323853 0.525652 -1 0 0 -0.00641562 -0.00508057 0.00287118 9.52881 -10.5797 20.8741
34 4 52.4585 21.8908 54.3337 0.911117 0.351326 0.506591 -1 0 0 -0.0145386 0.00662287 -0.01374 7.36491 30.5086 -2.46901
35 4 51.179 21.0124 53.5114 0.887695 0.335222 0.498925 -1 0 0 -0.00306649 -0.0112188 0.018879 15.6963 -5.30814 -8.86434
36 4 53.6668 20.2521 53.3651 0.933235 0.321283 0.497561 -1 0 0 0.0247172 0.0188844 -0.0125842 30.0718 6.49624 -2.69838
37 4 52.6339 19.0569 53.7098 0.914327 0.299374 0.500774 -1 0 0 -0.00147996 -0.00610903 0.000537012 -18.442 -30.7429 -6.55751
38 4 54.4359 18.7294 55.5231 0.947313 0.293369 0.51768 -1 0 0 -0.00924333 -0.00235296 -0.00749518 -36.8287 10.5856 -5.0183
39 4 52.8709 19.4162 56.256 0.918665 0.305959 0.524513 -1 0 0 0.0336859 0.0196634 -0.00542408 -12.4332 -9.2623 15.9399
40 4 54.1918 21.7125 55.4427 0.942846 0.348057 0.516931 -1 0 0 -0.00703518 -0.00478314 -0.0215017 -1.0656 -19.1751 9.60567
41 4 55.4611 20.6462 55.5204 0.96608 0.328509 0.517655 -1 0 0 -0.00408759 0.00724026 -0.0113419 51.9042 -6.37186 3.57434
42 4 53.4565 21.466 57.7671 0.929385 0.343538 0.538601 -1 0 0 0.00614438 -0.00201454 0.0108447 -9.55815 17.7566 -3.78307
43 4 55.322 21.6841 57.8202 0.963535 0.347537 0.539096 -1 0 0 0.0212458 -0.00660002 0.0321998 -32.6828 1.46776 -13.0107
44 4 55.158 20.0648 59.324 0.960532 0.31785 0.553116 -1 0 0 0.00644632 -0.00196589 0.0175208 4.2 -0.0793822 -13.9441
45 4 55.2158 19.0311 57.8106 0.96159 0.298899 0.539007 -1 0 0 -0.0127566 0.0189031 -0.00196447 -14.1448 7.34124 13.9024
46 4 52.6081 19.9926 58.063 0.913855 0.316526 0.54136 -1 0 0 -0.00053184 0.032295 0.0222534 -11.5341 -13.1384 -4.68977
47 4 53.0119 20.0245 59.6754 0.921247 0.317112 0.556393 -1 0 0 0.0154977 0.0139924 0.0252796 -9.51355 -3.26241 27.9714
48 4 53.6121 17.4239 58.2678 0.932234 0.269436 0.54327 -1 0 0 -0.00305242 0.0268338 -0.0107185 24.9433 -9.41358 -3.50252
49 4 51.9397 17.5593 58.3749 0.90162 0.271918 0.544268 -1 0 0 -0.00269756 0.0205381 -0.0146754 26.1657 31.802 24.6873
50 4 53.9618 17.0466 60.4053 0.938635 0.262519 0.563198 -1 0 0 -0.0134734 0.0114127 -0.0148073 14.3451 -13.0481 13.3849
51 4 52.2171 16.7919 60.5867 0.906697 0.25785 0.564889 -1 0 0 0.0317025 0.00900109 -0.0101086 -1.28735 -14.474 -7.48819
52 4 51.7687 19.0187 61.4021 0.898489 0.298672 0.572491 -1 0 0 -0.0186028 0.0115691 -0.02718 14.6687 -0.827294 -14.9913
53 4 53.5266 19.4578 61.4307 0.930669 0.306722 0.572758 -1 0 0 -0.00700966 6.76569e-05 0.00428757 -2.05033 -10.3911 -17.5149
54 4 54.1619 16.9403 64.1203 0.942298 0.260571 0.597834 -1 0 0 0.029493 -0.001224 -0.0133656 -3.32779 -13.4325 22.0087
55 4 55.0498 17.9893 63.0028 0.958551 0.2798 0.587415 -1 0 0 0.0181563 -0.000605485 0.00973562 -26.5334 -9.59564 7.39186
56 4 54.4347 16.5235 62.395 0.947291 0.252928 0.581748 -1 0 0 -0.00499083 0.000768681 -0.000405833 -8.95582 -15.0585 -0.922047
57 4 53.3753 19.1471 64.4832 0.927899 0.301026 0.601217 -1 0 0 0.00265462 0.0274341 -0.00771665 -2.32291 -1.70344 -1.29971
58 4 51.6442 18.7156 64.4155 0.89621 0.293116 0.600586 -1 0 0 0.0255743 0.0016107 -0.00659188 3.11084 -5.34663 -5.49086
59 4 52.3019 19.9906 63.3709 0.90825 0.31649 0.590846 -1 0 0 -0.00681207 -0.00200009 0.0142317 2.15322 -7.86394 -5.58892
60 4 50.9555 17.4012 62.2822 0.883603 0.26902 0.580697 -1 0 0 -0.0185439 -0.0031784 -0.00381484 10.1927 -16.4086 -5.1444
61 4 51.6085 16.6779 63.7198 0.895557 0.255759 0.5941 -1 0 0 -0.00816866 -0.0158349 0.00549269 -4.29161 -15.7608 26.0972
62 4 52.2664 16.0645 62.1876 0.907601 0.244515 0.579815 -1 0 0 0.0210836 0.00131958 -0.000852929 -4.8191 -9.23667 -6.24379
63 5 51.9325 14.8132 40.3086 0.901487 0.221575 0.375832 -1 0 0 -0.00152854 -0.0003818 -0.00022952 -5.40779 15.8221 7.52212
64 1 13.5235 30.2399 31.4391 0.198394 0.504386 0.29314 0 0 0 -0.00731083 0.00146663 0.0021307 13.0934 -30.2752 -2.493
65 1 13.5113 28.7046 31.7253 0.198169 0.476239 0.295808 0 0 0 -0.000465364 -0.00406866 0.0106152 20.5826 -4.20594 27.4675
66 1 13.1188 28.4621 33.2193 0.190985 0.471793 0.309737 0 0 0 0.000475736 0.0119842 0.00038213 8.13833 5.38183 -33.9185
67 1 14.2354 27.6196 33.821 0.211425 0.456348 0.315346 0 0 0 0.00278909 -0.00254977 0.000667569 -27.4711 4.32904 8.19242
68 1 13.7166 26.7779 34.9805 0.201929 0.440918 0.326157 0 0 0 0.0044246 -0.00163206 0.00345815 34.3777 -45.3139 25.2075
69 1 12.2358 26.9288 35.4081 0.174821 0.443684 0.330143 0 0 0 0.0031012 -0.000900978 -0.000144741 43.528 60.5525 20.1941
70 1 11.8235 25.7628 36.2775 0.167274 0.422309 0.338249 0 0 0 -0.00590906 -0.00661464 -0.00421102 -16.7133 18.1298 -26.5279
71 1 12.8191 24.6597 36.0057 0.185499 0.402086 0.335715 0 0 0 0.00232067 0.00840854 0.00212495 0.485777 -42.8201 29.1001
72 1 13.9989 24.6991 36.9932 0.207096 0.402808 0.344922 0 0 0 -0.00131814 0.00231498 -0.0118945 8.32981 -4.18069 -35.627
73 1 13.4 24.8909 38.3464 0.196133 0.406325 0.357538 0 0 0 0.00719972 0.0074385 -0.00329709 3.10831 -23.9459 6.83163
74 1 14.3631 24.2636 39.3603 0.213762 0.394825 0.36699 0 0 0 0.000404078 -0.00349539 -0.0010123 14.5473 37.2774 33.2024
75 1 14.2626 22.8008 39.4493 0.211922 0.368007 0.36782 0 0 0 0.000260523 -0.00461435 0.00337509 22.9391 -61.9761 -26.7643
76 2 15.1762 22.3711 40.518 0.228647 0.36013 0.377785 0 0 0 -0.00115079 0.0111359 0.00444812 -65.0813 32.9511 7.4444
77 3 16.0274 23.4878 40.9091 0.244228 0.380603 0.38143 0 0 0 -0.00938825 -0.00146148 -0.00549118 -15.198 -21.5997 78.9934
78 3 15.8585 21.1878 40.1276 0.241137 0.338438 0.374144 0 0 0 -0.00393611 -0.00326328 0.00696136 28.0592 -44.994 -31.8283
79 3 14.23 22.0543 41.6212 0.211326 0.354323 0.388069 0 0 0 0.00581421 -0.00505957 0.000454792 52.6849 9.42348 47.2403
80 1 14.213 30.4762 30.1079 0.211015 0.508717 0.280729 0 0 0 0.0030173 0.00138251 0.000632533 -40.9579 3.63911 -22.0223
81 1 13.8454 29.3265 29.09 0.204285 0.487641 0.271238 0 0 0 0.00387457 -0.00405462 -0.00250984 -24.4703 11.6974 -45.994
82 1 14.6254 29.394 27.6868 0.218564 0.488877 0.258156 0 0 0 0.00460449 -0.00317054 0.000339639 -11.6603 14.5007 42.8176
83 3 14.8549 28.0249 27.0164 0.222765 0.463779 0.251906 0 0 0 -0.00597947 0.00731883 -0.00205959 7.68054 1.42329 20.1018
84 4 13.9781 27.835 26.3878 0.206714 0.460298 0.246045 0 0 0 -0.0118104 0.00742689 0.0060658 -4.7191 -11.8904 -0.126544
85 4 15.0171 27.1703 27.7537 0.225733 0.448112 0.258779 0 0 0 0.00171181 0.00112463 -0.0097234 -8.19102 18.4082 -14.7743
86 4 15.7142 28.0486 26.3202 0.238494 0.464214 0.245415 0 0 0 0.0134783 -0.00303209 0.051527 3.30678 0.214237 3.86946
87 4 15.5585 29.9325 27.9214 0.235644 0.498749 0.260343 0 0 0 0.0324174 -0.0232972 -0.0199191 10.2382 -7.87326 -4.82796
88 4 14.1473 30.1109 26.9516 0.209812 0.50202 0.251302 0 0 0 -0.0197175 0.00488864 0.0048415 0.00964433 -16.4712 13.9502
89 4 12.7289 29.4238 28.7846 0.183848 0.489424 0.268391 0 0 0 0.00136433 0.0126779 -0.000913113 34.8837 -2.48293 14.8311
90 4 13.8899 28.3249 29.5672 0.205101 0.469279 0.275687 0 0 0 0.00181154 0.00935818 -0.00773532 6.97666 2.69903 -1.55659
91 4 15.2521 30.6389 30.3154 0.230035 0.511701 0.282663 0 0 0 -0.0122666 -0.0152415 -0.0103166 24.8339 -6.37073 -5.89644
92 4 13.8457 31.4456 29.6784 0.204291 0.526489 0.276724 0 0 0 -0.00126236 0.0182633 -0.00296776 6.27484 -10.0368 6.21036
93 4 14.0111 30.8199 32.2617 0.207319 0.515018 0.300809 0 0 0 0.0262056 -0.00887623 -0.0100527 -4.94351 -7.96749 -8.30681
94 4 12.5279 30.6063 31.3417 0.180168 0.511103 0.292232 0 0 0 0.0154516 0.0332818 -0.0129293 -24.4356 9.32798 3.20972
95 4 14.6124 28.3296 31.5351 0.218325 0.469365 0.294035 0 0 0 0.0109001 -0.00561497 -0.0124395 -51.1798 5.27346 5.34289
96 4 12.726 28.1039 31.1897 0.183795 0.465227 0.290814 0 0 0 -0.021914 -0.00626789 -0.021364 17.7613 13.8681 -10.7154
97 4 12.1466 27.9714 33.2597 0.173188 0.462798 0.310114 0 0 0 0.0192726 -0.00887504 -0.00944919 -4.22878 -10.146 0.745952
98 4 12.9197 29.4195 33.713 0.187339 0.489345 0.31434 0 0 0 0.00567313 0.000765372 -0.0178869 9.78075 5.50806 8.73446
99 4 15.1326 28.2333 34.033 0.227848 0.467599 0.317323 0 0 0 -0.0272046 -0.00785212 0.00836872 -2.7664 -1.45415 5.7202
100 4 14.5158 26.8893 33.099 0.216558 0.44296 0.308615 0 0 0 -0.0187187 -0.00572678 0.00214567 14.0545 -11.5012 -23.088
101 4 14.438 26.9372 35.8309 0.215134 0.443838 0.334085 0 0 0 -0.0128701 -0.00386197 -0.0121063 -17.3512 9.75153 -6.16691
102 4 13.9555 25.6581 34.8316 0.206302 0.42039 0.324769 0 0 0 -0.00203191 0.0104722 -0.00839426 -12.8144 34.6131 -6.7284
103 4 11.6277 27.1136 34.5346 0.163689 0.447073 0.322 0 0 0 -0.0209854 -0.00146731 -0.0200999 -16.4776 -6.85008 -11.7257
104 4 12.1821 27.923 36.0049 0.173838 0.46191 0.335708 0 0 0 -0.0210516 0.000823664 0.00590183 -2.11132 -35.9318 -15.3069
105 4 10.8116 25.4874 35.8898 0.14875 0.41726 0.334634 0 0 0 0.00246645 0.0040611 -0.00661695 6.14812 -2.83425 14.0576
106 4 11.7491 26.1321 37.3232 0.165911 0.429079 0.347998 0 0 0 -0.0129336 0.00428245 -0.0102146 0.535087 -12.794 -0.385899
107 4 13.2217 24.6759 34.971 0.192868 0.402384 0.326069 0 0 0 0.0298295 -0.00357642 0.011413 -7.70552 -1.06879 1.78693
108 4 12.2578 23.68 36.1946 0.175225 0.384125 0.337476 0 0 0 -0.0221012 -0.0108749 -0.00759874 18.0786 21.0654 -11.3439
109 4 14.5743 25.6185 36.655 0.217628 0.419663 0.341769 0 0 0 0.0111339 -0.00285358 -0.0118159 3.5092 -20.8591 15.5533
110 4 14.6523 23.7507 36.9994 0.219057 0.385422 0.344979 0 0 0 0.0283979 0.0149814 0.0178937 -14.9418 26.2064 -7.97962
111 4 12.3676 24.4113 38.3561 0.177233 0.397532 0.357628 0 0 0 0.00553548 -0.034928 -0.0017205 19.8457 15.482 6.137
112 4 13.3794 25.9734 38.4744 0.195755 0.42617 0.358731 0 0 0 -0.0180056 -0.0141933 0.0154862 -13.0512 10.0047 7.86026
113 4 14.0908 24.6114 40.4161 0.208777 0.401201 0.376834 0 0 0 -0.0132924 -0.00913107 0.0270081 8.72071 0.906893 -26.4503
114 4 15.467 24.5518 39.2081 0.233969 0.400108 0.365571 0 0 0 -0.00616245 -0.00939324 -0.0106613 -31.2241 -3.8502 0.181821
115 4 14.4368 22.2934 38.4502 0.215112 0.358707 0.358506 0 0 0 0.00609672 -0.0305019 0.0039876 13.8984 11.7296 19.2775
116 4 13.2958 22.3504 39.6743 0.194225 0.359751 0.369918 0 0 0 0.00599478 0.0219272 0.00876694 -15.1531 16.0633 7.0718
117 4 14.1992 20.9745 41.8631 0.210761 0.334527 0.390325 0 0 0 -0.00899867 0.000239759 -0.0016787 0.236031 0.790608 -3.28104
118 4 13.274 22.3738 41.4174 0.193825 0.360179 0.38617 0 0 0 0.000907412 -0.0132015 0.00279524 -49.6835 11.0984 -21.351
119 4 14.4065 22.6463 42.6077 0.214558 0.365176 0.397267 0 0 0 0.00190211 -0.00849789 -0.0105119 8.38919 -20.9305 -36.282
120 4 15.6146 20.3315 40.7525 0.236671 0.322739 0.37997 0 0 0 -0.00883356 -0.0135937 -0.00660142 -2.47345 -4.3339 14.2505
121 4 16.9646 21.3288 40.1824 0.261384 0.341022 0.374655 0 0 0 0.00452996 0.0250697 0.00845136 -7.38555 0.413 -0.731413
122 4 15.6124 20.7914 39.0907 0.236632 0.33117 0.364477 0 0 0 -0.00601626 0.00587171 -0.0026476 -0.306803 22.3164 16.827
123 4 16.1489 23.4697 42.0533 0.246452 0.380271 0.392098 0 0 0 0.00905845 -0.013704 8.55394e-05 0.24261 -10.0389 -33.1304
124 4 15.603 24.4943 40.8427 0.23646 0.399053 0.380812 0 0 0 -0.0179758 -0.0198214 0.0253565 -2.81224 3.8732 -21.6374
125 4 17.0139 23.3316 40.5588 0.262287 0.377739 0.378165 0 0 0 -0.00553278 -0.00489767 0.00188354 29.8008 10.2525 -17.9534
126 5 24.9123 30.777 45.5399 0.406869 0.514232 0.424604 0 0 0 0.000465382 -0.000992229 0.000253211 -6.51336 14.7102 12.9577
127 1 37.772 20.4009 49.7579 0.642273 0.324012 0.46393 0 0 0 -0.00374143 0.00269698 0.00796568 21.0545 19.4432 41.1259
128 1 37.7853 19.9444 48.3479 0.642516 0.315643 0.450784 0 0 0 0.00305936 -0.00115818 0.0049434 -5.89602 -14.8227 -21.5984
129 1 36.4274 20.2568 47.7226 0.61766 0.32137 0.444954 0 0 0 0.00195892 0.00606555 -0.0011682 -1.31488 35.4145 -6.904
130 1 35.3798 19.3277 48.2637 0.598483 0.304338 0.449999 0 0 0 0.000238763 0.000804846 -9.06788e-05 -2.56556 -65.7677 5.03641
131 1 35.8792 18.0171 48.9526 0.607624 0.280311 0.456422 0 0 0 -0.0123839 -0.000792308 0.00625218 -2.88319 97.0395 66.5407
132 1 35.2614 16.764 48.4923 0.596315 0.257338 0.45213 0 0 0 3.52946e-05 0.00205022 0.00567294 -39.979 -45.7406 -5.97116
133 1 36.1979 15.6367 48.1722 0.613459 0.236671 0.449146 0 0 0 -0.00521437 0.00190968 0.00327895 62.5461 52.2288 14.916
134 1 36.8788 15.3186 49.4994 0.625922 0.230841 0.461519 0 0 0 -0.000539365 0.00335159 -0.00147702 11.0164 -23.5275 12.5688
135 1 38.091 16.1315 49.8188 0.648112 0.245743 0.464498 0 0 0 -0.00142072 -0.0027162 -6.43465e-05 -14.4506 76.9896 -78.2248
136 1 38.8197 15.864 51.038 0.661451 0.240838 0.475864 0 0 0 0.00482051 -0.00157858 -0.00651838 14.672 -35.5398 24.051
137 1 39.6753 14.6104 50.847 0.677113 0.217858 0.474084 0 0 0 -0.0020001 0.00161382 -0.0048171 19.2919 29.2867 -29.6692
138 1 39.669 13.6957 51.9818 0.676999 0.201089 0.484663 0 0 0 0.000759512 0.00108333 -0.0025354 -67.3429 -36.4642 39.3358
139 2 40.6742 14.0314 52.9473 0.695399 0.207243 0.493666 0 0 0 -0.00320804 -0.000756023 0.00236762 29.9111 11.4937 -15.2128
140 3 40.7113 15.4356 53.1828 0.696079 0.232986 0.495861 0 0 0 0.000623704 -0.00459635 0.00245131 -58.6769 32.9378 -19.2575
141 3 42.0722 13.8299 52.5017 0.72099 0.203549 0.489511 0 0 0 0.00819625 -0.00549943 0.00556472 -45.3262 22.792 -40.5088
142 3 40.3999 13.4342 54.2203 0.690378 0.196294 0.505534 0 0 0 -0.00851114 -0.00164693 0.00213693 31.2977 -24.4121 -22.8115
143 1 39.1705 20.2321 50.4509 0.667873 0.320918 0.470391 0 0 0 0.00224611 -0.00387848 -0.00110138 -55.7941 26.5455 -23.0057
144 1 39.0873 20.8065 51.8666 0.666351 0.331448 0.48359 0 0 0 0.003331 -0.00633759 0.000427491 32.5462 -50.3227 -8.41146
145 1 38.1535 20.0584 52.8056 0.649256 0.317733 0.492344 0 0 0 0.000404735 -0.00382716 -0.00434183 14.6267 9.32566 -14.7949
146 3 37.483 18.9155 52.1413 0.636982 0.29678 0.48615 0 0 0 0.000397701 0.0073027 -0.00246982 4.11152 17.1747 -22.357
147 4 36.6253 18.7519 52.7272 0.621281 0.293781 0.491613 0 0 0 -0.0144421 0.0221082 0.00430399 -29.5721 -18.8672 15.7923
148 4 38.1484 18.0933 52.1542 0.649163 0.281707 0.486271 0 0 0 0.00996297 -0.0161105 -0.010556 10.5647 -30.0377 -2.57253
149 4 37.1418 19.1373 51.116 0.630737 0.300846 0.476592 0 0 0 0.0154711 0.0171088 -0.0043297 3.39127 1.12594 -3.21799
150 4 37.3337 20.6807 53.1255 0.63425 0.329141 0.495327 0 0 0 0.00903186 0.00890335 0.00421255 -5.82787 19.5616 11.5746
151 4 38.7384 19.7466 53.6604 0.659963 0.312017 0.500314 0 0 0 -0.00778106 -0.00278487 0.0219991 3.7791 -7.69548 16.3125
152 4 38.7497 21.7508 51.8113 0.66017 0.34876 0.483074 0 0 0 -0.00119541 -0.0140952 0.0152535 -27.7955 62.8113 -7.88077
153 4 40.0966 20.9978 52.2642 0.684827 0.334955 0.487297 0 0 0 0.0267022 -0.0138048 -0.0182248 1.28393 -11.087 8.09203
154 4 39.8437 20.8265 49.8365 0.680197 0.331814 0.464663 0 0 0 0.00962955 0.00631206 0.00154321 12.9712 2.01571 0.294376
155 4 39.4583 19.214 50.3825 0.673141 0.302254 0.469753 0 0 0 -0.00467176 0.00718945 -0.00351617 14.1114 -28.0206 7.56875
156 4 36.9645 19.8958 50.352 0.627492 0.314752 0.469469 0 0 0 -0.00575619 -0.00415648 0.00856072 12.7481 -2.84085 -9.17599
157 4 37.4477 21.4499 49.7984 0.636338 0.343243 0.464307 0 0 0 -0.00210564 -0.0143186 0.0123837 5.04438 4.01338 -1.59321
158 4 37.9028 18.8784 48.5224 0.644667 0.296101 0.452411 0 0 0 0.023575 0.0117591 0.0155907 1.54073 -13.2979 -15.5742
159 4 38.6313 20.2728 47.7146 0.658004 0.321663 0.44488 0 0 0 -0.00195213 0.0177174 0.00560951 2.31985 4.02789 5.33587
160 4 36.3656 20.1623 46.6036 0.616529 0.319637 0.434521 0 0 0 0.0193262 -0.00555534 -0.000905521 11.0267 1.73094 12.0972
161 4 36.1371 21.3371 47.9812 0.612345 0.341174 0.447366 0 0 0 0.000760909 -0.0107909 -0.00377098 6.79716 -26.2183 -7.4688
162 4 34.7529 18.9721 47.4523 0.587008 0.297819 0.442434 0 0 0 -0.00932643 -0.00906689 0.0205757 -10.1043 2.44864 -13.6035
163 4 34.7197 19.7792 48.9787 0.5864 0.312615 0.456665 0 0 0 -0.0236007 0.0132785 -0.0122558 -10.0636 18.7748 8.42257
164 4 35.5207 18.2462 50.0655 0.601063 0.284511 0.466797 0 0 0 -0.00887284 0.0408481 0.0239776 22.3808 -24.6078 -52.4741
165 4 36.9777 18.0735 48.9642 0.627733 0.281344 0.45653 0 0 0 -0.0088529 -0.00978165 -0.00319934 2.41661 -14.0654 -0.727308
166 4 34.5647 16.9153 47.6579 0.583562 0.260113 0.444351 0 0 0 -0.0195173 0.00685207 0.0080191 -3.19024 6.21276 -3.48352
167 4 34.6546 16.309 49.3209 0.585208 0.248997 0.459856 0 0 0 -0.00232304 -0.0184874 -0.00964373 1.64569 17.6758 -7.47888
168 4 36.9662 15.9828 47.4143 0.627523 0.243017 0.44208 0 0 0 0.00177403 -0.00253051 0.00484576 -12.805 -9.94305 9.48603
169 4 35.7303 14.7821 47.8225 0.604899 0.221006 0.445885 0 0 0 0.0251509 -0.00997738 0.00118323 -25.0177 -35.3439 -22.4965
170 4 37.2975 14.2915 49.5312 0.633587 0.212012 0.461817 0 0 0 0.00471159 -0.00568455 -0.00248474 -15.0837 -1.43338 -6.07239
171 4 36.15 15.4204 50.3145 0.612582 0.232707 0.469119 0 0 0 -0.00177019 -0.00998353 0.0027331 -3.11295 -2.40248 4.71512
172 4 37.7651 17.2084 49.9345 0.642147 0.265486 0.465577 0 0 0 -0.00374834 -0.00560673 -0.0346164 2.11886 -15.968 -4.18808
173 4 38.7384 16.1851 48.8829 0.659964 0.246725 0.455772 0 0 0 0.00671624 -0.0061201 0.000931338 -6.07803 -7.16815 24.963
174 4 38.0827 15.7242 51.8163 0.647962 0.238277 0.483121 0 0 0 0.0192089 -0.00592273 0.0289464 -7.78943 -4.21907 14.653
175 4 39.4441 16.7172 51.3166 0.672881 0.25648 0.478462 0 0 0 -0.0279132 -0.0100221 -0.00144163 2.75659 5.12626 0.519879
176 4 40.7148 14.9336 50.5866 0.696142 0.223782 0.471656 0 0 0 0.0260923 0.0100979 -0.00262044 -9.00987 -6.2479 6.52141
177 4 39.3799 13.9948 49.9921 0.671706 0.206572 0.466113 0 0 0 0.0148312 0.0114425 -0.00827693 -7.33057 3.44276 -10.0851
178 4 39.9548 12.6895 51.5894 0.682231 0.182643 0.481005 0 0 0 0.0196065 -0.0117882 -0.0118986 -12.6682 3.39379 4.1506
179 4 38.5468 13.6772 52.4275 0.656456 0.200749 0.488819 0 0 0 -0.00813633 0.0115177 -0.0289145 67.4885 -5.32431 -18.9764
180 4 40.4443 14.1913 54.9561 0.691191 0.210175 0.512394 0 0 0 -0.0309437 -0.00523936 0.0277294 6.14062 19.1272 28.6429
181 4 41.2302 12.6706 54.3322 0.705578 0.182296 0.506577 0 0 0 -0.00262006 0.00763341 0.00278677 -21.7393 6.35545 14.9428
182 4 39.4053 13.0234 54.2455 0.672172 0.188763 0.505769 0 0 0 -0.0255692 -0.00886802 0.0183153 -14.3121 -14.3667 -0.996597
183 4 42.6335 14.6807 52.9323 0.731265 0.219146 0.493525 0 0 0 -0.018471 0.00765118 -0.00505216 11.7106 -6.9728 -1.53756
184 4 42.147 13.9119 51.3373 0.72236 0.205053 0.478655 0 0 0 -0.000464436 -0.00321003 0.0303138 -3.47272 -4.70933 43.6436
185 4 42.4247 12.8739 52.8248 0.727443 0.186024 0.492523 0 0 0 -0.00719483 0.006274 -0.00047619 15.0765 -19.2601 7.15584
186 4 40.4872 16.0467 52.2329 0.691976 0.244188 0.487005 0 0 0 -0.0123736 -0.0135997 0.0152476 2.82596 -22.1055 24.1507
187 4 41.683 15.7699 53.5119 0.713867 0.239114 0.498929 0 0 0 -0.000941688 -0.0041007 0.0306577 14.4074 3.50095 16.4591
188 4 39.8779 15.6264 53.9357 0.680822 0.236484 0.502881 0 0 0 -0.00921245 0.00707033 0.0205329 22.0627 9.24152 -12.7673
189 5 38.1671 8.91023 38.3321 0.649505 0.113359 0.357404 0 0 0 -0.000510468 -0.000100669 -0.000560863 10.454 16.6076 2.2379
190 3 44.3303 23.0337 55.8553 0.762327 0.372277 0.520777 0 0 0 -0.00114536 0.00661854 0.0125893 35.3429 -15.5897 16.8732
191 1 43.4486 22.4296 56.964 0.746186 0.361203 0.531114 0 0 0 0.00708815 0.00497757 0.00304707 6.98872 -74.264 14.6034
192 1 42.0594 21.9525 56.4764 0.720755 0.352456 0.526568 0 0 0 0.000506009 0.00406983 -0.00771747 -20.097 44.1539 9.65956
193 1 41.7464 20.4193 56.6403 0.715026 0.324348 0.528096 0 0 0 -0.000595756 0.00271661 -0.00370976 23.054 -21.4067 5.09024
194 1 41.1877 19.7331 55.4058 0.704799 0.311769 0.516587 0 0 0 0.00167874 -0.00104531 -0.00239137 42.6538 4.65532 14.48
195 1 41.9598 18.3883 55.2768 0.718933 0.287115 0.515384 0 0 0 0.00122256 -0.0026916 -0.0034728 -25.2901 23.9327 -14.7921
196 1 41.3797 17.3955 56.2399 0.708313 0.268915 0.524363 0 0 0 -0.00598608 0.000418958 0.0091293 -38.0007 8.50877 1.36222
197 1 41.8378 16.0581 55.741 0.7167 0.244398 0.519712 0 0 0 -0.00447864 -0.00425376 0.00318965 -62.9551 -24.8366 -9.49759
198 1 42.2032 15.1078 56.8287 0.723388 0.226975 0.529853 0 0 0 0.00390649 -0.00749062 -0.00480032 60.204 17.0733 2.85518
199 1 41.2313 15.087 58.022 0.705598 0.226595 0.540977 0 0 0 -0.0105015 0.00267373 -0.000318372 -19.2295 -42.9109 -3.48054
200 1 39.8433 15.4347 57.5136 0.680189 0.232968 0.536237 0 0 0 -0.0004293 -0.000439922 0.00315938 -15.7576 -1.38473 3.59574
201 1 38.8412 14.4238 58.0986 0.661845 0.214436 0.541692 0 0 0 -0.00302168 0.00360344 -0.00334287 -2.62733 36.1917 -25.228
202 2 38.3459 13.489 57.0851 0.652778 0.1973 0.532243 0 0 0 -0.00300048 -0.00659323 -0.00363427 -2.02877 20.7477 -28.4342
203 3 38.7826 12.2262 57.5665 0.660772 0.174148 0.536731 0 0 0 0.00557012 -0.00477299 -0.00361238 11.0883 0.689326 73.0593
204 3 38.9385 13.7783 55.748 0.663627 0.202602 0.519777 0 0 0 -0.00484341 0.0014329 -0.00365388 -10.0497 -36.2048 -20.7156
205 1 36.897 13.524 56.9287 0.626255 0.197941 0.530785 0 0 0 -0.00210876 -0.00573254 0.000103545 -79.7072 -9.48114 76.844
206 1 36.6096 14.0577 55.5618 0.620996 0.207724 0.518041 0 0 0 0.000787727 0.00121942 0.000478509 -33.7241 -3.4454 -12.6255
207 1 36.8297 12.9186 54.5926 0.625025 0.186843 0.509004 0 0 0 -0.00417903 -0.00500765 0.00529576 -25.5528 -14.2922 -20.5048
208 1 35.5247 12.7936 53.7561 0.601135 0.184552 0.501206 0 0 0 -0.000440318 0.000825655 -0.00475474 -12.6361 5.19976 40.5304
209 1 35.6151 13.4478 52.3816 0.602791 0.196544 0.488391 0 0 0 -1.70201e-05 0.00032709 0.00768091 5.8572 -22.4524 -24.268
210 1 34.8505 14.7994 52.3151 0.588793 0.221321 0.487771 0 0 0 -0.00734365 0.00265786 0.00928817 -13.4922 -17.0384 1.56981
211 1 35.0642 15.5752 53.5835 0.592706 0.235545 0.499597 0 0 0 0.00102525 -0.000272098 -0.00567863 56.8088 18.9494 4.40941
212 1 35.0755 17.1395 53.3202 0.592912 0.264222 0.497142 0 0 0 -0.00568432 -0.00715164 0.0016496 -22.6782 -27.1958 33.235
213 1 34.5663 17.8125 54.6086 0.583591 0.27656 0.509154 0 0 0 0.000436127 0.00314324 0.00395567 22.3204 -30.0011 -2.45206
214 1 35.0158 19.2313 54.5302 0.59182 0.30257 0.508423 0 0 0 -0.000672731 0.00228724 -0.00643991 1.95864 17.7003 30.7908
215 1 35.1537 19.7629 55.9498 0.594345 0.312315 0.521658 0 0 0 -0.00603219 0.0131774 0.00341046 -0.196798 -23.2264 56.0164
216 3 36.2283 20.8377 56.2011 0.614015 0.33202 0.524002 0 0 0 -0.00730731 0.00123371 -0.00405594 -6.69572 5.65964 -104.345
217 4 44.6907 22.236 55.1555 0.768923 0.357654 0.514253 0 0 0 -0.001165 0.00676293 0.0136241 -8.01195 8.47975 2.18476
218 4 45.2759 23.6288 56.1667 0.779636 0.383188 0.52368 0 0 0 0.0197115 0.00223226 0.0231408 -32.7067 -18.2502 0.0414699
219 4 43.6653 23.6896 55.3394 0.750152 0.384302 0.515967 0 0 0 -0.0110635 -0.0191371 -0.00911832 -5.26626 19.8558 -21.8294
220 4 43.2811 23.0769 57.7931 0.743119 0.373069 0.538844 0 0 0 -0.0203275 -0.02193 0.0145208 3.96758 23.4509 16.5885
221 4 43.8997 21.4838 57.4642 0.754443 0.343864 0.535778 0 0 0 0.00403808 0.000260523 0.0336584 -2.96009 35.668 -20.4869
222 4 41.9816 22.3654 55.4055 0.719331 0.360026 0.516584 0 0 0 -0.0327172 -0.0395624 0.00383448 -6.57138 -22.1927 23.2994
223 4 41.2919 22.5949 57.1088 0.706708 0.364234 0.532464 0 0 0 -0.025164 -0.00068554 -0.00098049 27.7987 -33.2413 -31.2935
224 4 41.0404 20.2131 57.4408 0.702103 0.32057 0.535559 0 0 0 0.0120011 -0.00606395 -0.00742183 -8.58791 9.05247 8.70465
225 4 42.6123 19.7677 56.9679 0.730877 0.312404 0.53115 0 0 0 0.023815 -0.00614748 -0.00497392 -3.78259 23.5642 -4.77576
226 4 41.3845 20.4757 54.6143 0.708401 0.325382 0.509207 0 0 0 -0.00365666 0.00233514 -0.00746896 -11.7271 -7.90839 -12.1786
227 4 40.142 19.5314 55.6389 0.685657 0.308072 0.518759 0 0 0 -0.0186251 0.00473031 0.0512419 -12.6886 3.46805 -13.1958
228 4 43.0343 18.5089 55.3648 0.738601 0.289326 0.516204 0 0 0 -0.0274146 -0.0154582 0.0149743 14.1241 3.0057 5.16282
229 4 41.7864 17.935 54.2849 0.715759 0.278806 0.506136 0 0 0 -0.0106939 0.0158968 0.00526841 4.06568 6.87115 -5.17238
230 4 40.2544 17.4911 56.3155 0.687715 0.270668 0.525067 0 0 0 0.00235091 -0.00911734 0.00496325 18.6215 -4.5355 -11.2025
231 4 41.6452 17.6249 57.2536 0.713174 0.273122 0.533814 0 0 0 -0.0476612 -0.00982027 0.00680517 18.9712 -3.20693 17.9976
232 4 42.6484 16.2498 55.1092 0.731538 0.247911 0.513821 0 0 0 -0.0390961 -0.00711126 -0.0152226 35.3653 3.25183 -18.5267
233 4 41.1171 15.5079 55.012 0.703507 0.234311 0.512915 0 0 0 -0.00712261 0.00337098 -0.0229945 14.3311 28.1478 30.4201
234 4 43.2859 15.3891 57.1358 0.743208 0.232133 0.532715 0 0 0 0.0114924 -0.00997556 -0.015857 -34.567 -13.1795 -2.13562
235 4 42.2687 14.2112 56.1864 0.724587 0.210539 0.523864 0 0 0 0.040031 -0.0103507 0.00908237 -3.8684 -14.152 21.1804
236 4 41.4596 15.8108 58.7662 0.709777 0.239864 0.547916 0 0 0 -0.017726 0.00557981 -0.0071765 15.681 21.3038 15.0512
237 4 41.2208 14.0757 58.5855 0.705405 0.208055 0.546231 0 0 0 -0.00285086 0.00631509 0.0142057 2.10328 29.0041 -20.2011
238 4 39.8523 15.3989 56.4189 0.680353 0.232313 0.526031 0 0 0 -0.0222025 0.0200674 0.0021674 -1.9456 -6.17153 -5.88309
239 4 39.4975 16.4804 57.7335 0.673859 0.252138 0.538288 0 0 0 -0.0116187 -0.03522 0.0141569 11.2192 -12.4725 5.47752
240 4 38.0709 14.988 58.6424 0.647744 0.22478 0.546762 0 0 0 0.0126426 0.00299435 -0.0123491 -12.3658 -1.98476 -5.25132
241 4 39.337 13.8973 58.8664 0.670921 0.204784 0.54885 0 0 0 0.0208436 -0.000300377 0.0154971 14.802 -22.2112 20.3662
242 4 36.2592 14.1408 57.7509 0.614581 0.209248 0.53845 0 0 0 0.00737254 -0.0302569 -0.0128953 53.7018 -19.6155 -46.4277
243 4 36.3666 12.4947 57.1704 0.616546 0.179071 0.533038 0 0 0 0.0167349 0.00660373 -0.0110569 35.9635 35.9924 -24.4815
244 4 37.307 14.8215 55.2574 0.633762 0.221728 0.515203 0 0 0 -0.00233418 0.00135822 0.00191059 9.51368 19.9493 1.89833
245 4 35.5515 14.4964 55.5411 0.601625 0.215768 0.517848 0 0 0 -0.023569 -0.0100476 -0.0119871 24.6631 -13.4492 -7.44265