LAMMPS data file containing the original structures and the polarizable gold

20160 atoms
16169 bonds
24756 angles
35334 dihedrals
0 impropers

7 atom types
7 bond types
13 angle types
15 dihedral types

-48.366589 106.812408 xlo xhi
-3.000000 61.997501 ylo yhi
-3.000000 96.387703 zlo zhi

Masses

1 12.011150
2 14.006700
3 12.011150
4 1.007970
5 79.908997
6 195.960007
7 1.000000

Atoms

1 1 1 -0.106000 46.351002 8.967000 55.841999
2 1 1 -0.106000 47.259998 10.178000 56.069000
3 1 1 -0.106000 46.490002 11.484000 55.854000
4 1 1 -0.106000 47.407001 12.693000 56.055000
5 1 1 -0.106000 46.646000 13.998000 55.812000
6 1 1 -0.106000 47.566002 15.206000 56.004002
7 1 1 -0.106000 46.806000 16.510000 55.751999
8 1 1 -0.106000 47.719002 17.721001 55.957001
9 1 1 -0.106000 46.949001 19.021999 55.719002
10 1 1 -0.106000 47.844002 20.240999 55.955002
11 1 1 -0.106000 47.056999 21.539000 55.741001
12 1 1 0.301100 47.950001 22.770000 56.012001
13 1 2 -0.628400 47.278999 24.097000 55.847000
14 1 3 0.248100 46.136002 24.247000 56.778999
15 1 3 0.248100 46.811001 24.298000 54.453999
16 1 3 0.248100 48.273998 25.150999 56.160000
17 1 1 -0.106000 47.127998 7.660000 56.022999
18 1 1 -0.106000 46.224998 6.449000 55.772999
19 1 1 -0.106000 47.006001 5.142000 55.933998
20 1 3 -0.159000 46.111000 3.933000 55.674000
21 1 4 0.053000 46.701000 3.001000 55.794998
22 1 4 0.053000 45.708000 3.969000 54.639999
23 1 4 0.053000 45.265999 3.917000 56.396000
24 1 4 0.053000 47.414001 5.073000 56.966000
25 1 4 0.053000 47.853001 5.121000 55.215000
26 1 4 0.053000 45.817001 6.506000 54.738998
27 1 4 0.053000 45.377998 6.466000 56.493000
28 1 4 0.053000 47.535000 7.613000 57.058998
29 1 4 0.053000 47.977001 7.637000 55.304001
30 1 4 0.053000 45.944000 9.007000 54.806999
31 1 4 0.053000 45.504002 9.000000 56.562000
32 1 4 0.053000 48.110001 10.135000 55.352001
33 1 4 0.053000 47.664001 10.151000 57.105000
34 1 4 0.053000 45.641998 11.538000 56.571999
35 1 4 0.053000 46.084999 11.502000 54.818001
36 1 4 0.053000 48.257999 12.630000 55.342999
37 1 4 0.053000 47.806999 12.684000 57.094002
38 1 4 0.053000 45.792999 14.066000 56.523998
39 1 4 0.053000 46.245998 14.002000 54.773998
40 1 4 0.053000 48.421001 15.136000 55.293999
41 1 4 0.053000 47.962002 15.205000 57.043999
42 1 4 0.053000 45.948002 16.575001 56.457001
43 1 4 0.053000 46.415001 16.514999 54.709999
44 1 4 0.053000 48.577999 17.665001 55.252998
45 1 4 0.053000 48.108002 17.711000 56.999001
46 1 4 0.053000 46.084999 19.065001 56.417999
47 1 4 0.053000 46.566002 19.039000 54.674000
48 1 4 0.053000 48.709000 20.209999 55.255001
49 1 4 0.053000 48.228001 20.214001 56.999001
50 1 4 0.053000 46.194000 21.531000 56.438000
51 1 4 0.053000 46.683998 21.549000 54.695999
52 1 4 0.053000 48.827999 22.708000 55.327000
53 1 4 0.053000 48.340000 22.680000 57.051998
54 1 4 0.053000 48.647999 25.054001 57.203999
55 1 4 0.053000 47.833000 26.167999 56.054001
56 1 4 0.053000 49.152000 25.091999 55.476002
57 1 4 0.053000 45.998001 23.590000 54.187000
58 1 4 0.053000 47.645000 24.164000 53.729000
59 1 4 0.053000 46.396000 25.320999 54.316002
60 1 4 0.053000 45.310001 23.547001 56.534000
61 1 4 0.053000 45.703999 25.271000 56.721001
62 1 4 0.053000 46.451000 24.065001 57.831001
63 1 5 -1.000000 45.301998 24.320999 55.644001
64 1 1 -0.106000 37.799000 9.671000 40.862000
65 1 1 -0.106000 38.273998 11.107000 41.102001
66 1 1 -0.106000 37.090000 12.023000 41.423000
67 1 1 -0.106000 37.566002 13.452000 41.692001
68 1 1 -0.106000 36.382999 14.365000 42.021000
69 1 1 -0.106000 36.861000 15.791000 42.299999
70 1 1 -0.106000 35.680000 16.711000 42.615002
71 1 1 -0.106000 36.164001 18.139000 42.875999
72 1 1 -0.106000 34.985001 19.075001 43.160000
73 1 1 -0.106000 35.477001 20.507999 43.393002
74 1 1 -0.106000 34.286999 21.459999 43.646000
75 1 1 0.301100 34.650002 22.893000 43.872002
76 1 2 -0.628400 35.351002 23.466999 42.698002
77 1 3 0.248100 35.494999 23.052999 45.080002
78 1 3 0.248100 33.393002 23.652000 44.078999
79 1 3 0.248100 38.514999 7.305000 40.361000
80 1 1 -0.106000 39.702999 6.378000 40.091000
81 1 1 -0.106000 39.236000 4.932000 39.903000
82 1 1 -0.106000 40.418999 4.003000 39.644001
83 1 3 -0.159000 40.054001 2.963000 39.514999
84 1 4 0.053000 41.124001 4.030000 40.502998
85 1 4 0.053000 40.955002 4.311000 38.721001
86 1 4 0.053000 38.535999 4.872000 39.042000
87 1 4 0.053000 38.705002 4.588000 40.818001
88 1 4 0.053000 40.407001 6.426000 40.951000
89 1 4 0.053000 40.234001 6.718000 39.174000
90 1 4 0.053000 37.808998 7.267000 39.500999
91 1 4 0.053000 37.983002 6.960000 41.276001
92 1 4 0.053000 39.692001 8.780000 41.425999
93 1 4 0.053000 39.512001 9.103000 39.654999
94 1 4 0.053000 37.271000 9.307000 41.771000
95 1 4 0.053000 37.091000 9.653000 40.004002
96 1 4 0.053000 38.799000 11.482000 40.195999
97 1 4 0.053000 38.985001 11.117000 41.959000
98 1 4 0.053000 36.563000 11.640000 42.324001
99 1 4 0.053000 36.381001 12.023000 40.564999
100 1 4 0.053000 38.094002 13.841000 40.792000
101 1 4 0.053000 38.276001 13.447000 42.548000
102 1 4 0.053000 35.854000 13.974000 42.918999
103 1 4 0.053000 35.674999 14.373000 41.162998
104 1 4 0.053000 37.396000 16.177999 41.403999
105 1 4 0.053000 37.564999 15.784000 43.161999
106 1 4 0.053000 35.141998 16.332001 43.512001
107 1 4 0.053000 34.979000 16.712999 41.750999
108 1 4 0.053000 36.710999 18.504999 41.980000
109 1 4 0.053000 36.856998 18.141001 43.745998
110 1 4 0.053000 34.435001 18.719000 44.058998
111 1 4 0.053000 34.292999 19.063000 42.289001
112 1 4 0.053000 36.036999 20.825001 42.488998
113 1 4 0.053000 36.164001 20.500000 44.264000
114 1 4 0.053000 33.726002 21.073000 44.528000
115 1 4 0.053000 33.605999 21.385000 42.766998
116 1 4 0.053000 32.727001 23.576000 43.189999
117 1 4 0.053000 33.597000 24.733000 44.254002
118 1 4 0.053000 32.832001 23.268999 44.960999
119 1 4 0.053000 36.491001 22.577999 44.952000
120 1 4 0.053000 35.004002 22.606001 45.973000
121 1 4 0.053000 35.685001 24.129000 45.293999
122 1 4 0.053000 36.348999 23.006001 42.548000
123 1 4 0.053000 35.528999 24.558001 42.833000
124 1 4 0.053000 34.755001 23.329000 41.769001
125 1 4 0.053000 36.473999 23.641001 43.533001
126 1 5 -1.000000 35.917999 5.662000 24.139000
127 1 1 -0.106000 33.580002 6.534000 24.492001
128 1 1 -0.106000 32.721001 7.577000 25.212999
129 1 1 -0.106000 31.252001 7.446000 24.804001
130 1 1 -0.106000 30.395000 8.494000 25.518000
131 1 1 -0.106000 28.929001 8.369000 25.100000
132 1 1 -0.106000 28.066000 9.405000 25.823000
133 1 1 -0.106000 26.598000 9.264000 25.415001
134 1 1 -0.106000 25.721001 10.275000 26.158001
135 1 1 -0.106000 24.249001 10.107000 25.761999
136 1 1 -0.106000 23.358000 11.103000 26.537001
137 1 1 -0.106000 21.895000 11.019000 26.240000
138 1 1 0.301100 21.349001 9.682000 26.577000
139 1 2 -0.628400 21.613001 11.325000 24.816000
140 1 3 0.248100 21.202999 12.028000 27.077999
141 1 3 0.248100 37.396999 5.833000 24.500000
142 1 3 0.248100 38.264000 4.825000 23.740000
143 1 1 -0.106000 39.744999 5.008000 24.086000
144 1 1 -0.106000 40.612999 4.012000 23.322001
145 1 1 -0.106000 41.679001 4.168000 23.587999
146 1 3 -0.159000 40.493999 4.158000 22.228001
147 1 4 0.053000 40.327999 2.972000 23.586000
148 1 4 0.053000 39.896999 4.857000 25.177000
149 1 4 0.053000 40.066002 6.039000 23.820999
150 1 4 0.053000 38.123001 4.973000 22.646999
151 1 4 0.053000 37.946999 3.792000 24.006001
152 1 4 0.053000 37.528999 5.686000 25.594999
153 1 4 0.053000 37.720001 6.865000 24.235001
154 1 4 0.053000 35.792999 5.805000 23.042000
155 1 4 0.053000 35.587002 4.634000 24.406000
156 1 4 0.053000 35.396000 7.710000 24.615000
157 1 4 0.053000 35.165001 6.542000 25.976999
158 1 4 0.053000 33.228001 5.514000 24.757999
159 1 4 0.053000 33.476002 6.675000 23.392000
160 1 4 0.053000 33.082001 8.595000 24.951000
161 1 4 0.053000 32.813999 7.434000 26.313000
162 1 4 0.053000 30.885000 6.428000 25.065001
163 1 4 0.053000 31.164000 7.587000 23.704000
164 1 4 0.053000 30.764999 9.512000 25.259001
165 1 4 0.053000 30.480000 8.350000 26.617001
166 1 4 0.053000 28.563000 7.349000 25.353001
167 1 4 0.053000 28.841999 8.518000 24.002001
168 1 4 0.053000 28.423000 10.428000 25.573000
169 1 4 0.053000 28.157000 9.253000 26.922001
170 1 4 0.053000 26.252001 8.235000 25.656000
171 1 4 0.053000 26.503000 9.425000 24.318001
172 1 4 0.053000 26.056000 11.307000 25.917000
173 1 4 0.053000 25.826000 10.111000 27.254000
174 1 4 0.053000 23.952000 9.064000 25.997000
175 1 4 0.053000 24.164000 10.275000 24.669001
176 1 4 0.053000 23.726999 12.132000 26.312000
177 1 4 0.053000 23.525999 10.927000 27.625000
178 1 4 0.053000 21.371000 11.834000 28.160999
179 1 4 0.053000 20.104000 12.016000 26.902000
180 1 4 0.053000 21.568001 13.056000 26.854000
181 1 4 0.053000 22.034000 10.552000 24.139000
182 1 4 0.053000 22.037001 12.313000 24.528000
183 1 4 0.053000 20.518000 11.350000 24.622999
184 1 4 0.053000 21.757000 8.891000 25.913000
185 1 4 0.053000 20.243000 9.658000 26.447001
186 1 4 0.053000 21.577999 9.412000 27.632000
187 1 4 0.053000 21.058001 9.526000 25.205999
188 1 4 0.053000 23.048000 53.645000 62.675999
189 1 5 -1.000000 21.530001 53.791000 62.803001
190 2 3 -0.159000 4.995000 19.679001 63.752998
191 2 1 -0.106000 6.186000 18.730000 63.827000
192 2 1 -0.106000 7.365000 19.250999 62.995998
193 2 1 -0.106000 8.550000 18.280001 63.087002
194 2 1 -0.106000 9.797000 18.753000 62.327999
195 2 1 -0.106000 9.595000 18.853001 60.805000
196 2 1 -0.106000 10.927000 19.164000 60.117001
197 2 1 -0.106000 10.802000 19.198999 58.584999
198 2 1 -0.106000 12.197000 19.316999 57.959999
199 2 1 -0.106000 12.185000 19.212999 56.423000
200 2 1 -0.106000 13.625000 19.024000 55.923000
201 2 1 0.301100 13.722000 18.709999 54.407001
202 2 2 -0.628400 15.060000 18.184000 53.950001
203 2 3 0.248100 16.100000 19.223000 54.158001
204 2 3 0.248100 14.988000 17.912001 52.493000
205 2 1 0.301100 15.484000 16.940001 54.681999
206 2 1 -0.106000 14.557000 15.706000 54.478001
207 2 1 -0.106000 14.567000 14.701000 55.648998
208 2 1 -0.106000 13.859000 15.306000 56.880001
209 2 1 -0.106000 13.545000 14.298000 57.990002
210 2 1 -0.106000 12.695000 14.993000 59.067001
211 2 1 -0.106000 12.237000 14.036000 60.171001
212 2 1 -0.106000 11.295000 14.767000 61.139999
213 2 1 -0.106000 10.763000 13.830000 62.229000
214 2 1 -0.106000 9.767000 14.568000 63.133999
215 2 1 -0.106000 9.206000 13.643000 64.218002
216 2 3 -0.159000 8.198000 14.378000 65.097000
217 2 4 0.053000 4.160000 19.274000 64.364998
218 2 4 0.053000 4.648000 19.782000 62.702999
219 2 4 0.053000 5.272000 20.679001 64.148003
220 2 4 0.053000 5.874000 17.732000 63.449001
221 2 4 0.053000 6.495000 18.625999 64.889999
222 2 4 0.053000 7.677000 20.247000 63.381001
223 2 4 0.053000 7.041000 19.355000 61.939999
224 2 4 0.053000 8.245000 17.282000 62.702999
225 2 4 0.053000 8.832000 18.167000 64.156998
226 2 4 0.053000 10.596000 18.004999 62.527000
227 2 4 0.053000 10.136000 19.733999 62.729000
228 2 4 0.053000 8.854000 19.642000 60.557999
229 2 4 0.053000 9.222000 17.875000 60.430000
230 2 4 0.053000 11.643000 18.358000 60.395000
231 2 4 0.053000 11.331000 20.136000 60.480000
232 2 4 0.053000 10.150000 20.041000 58.263000
233 2 4 0.053000 10.349000 18.242001 58.245998
234 2 4 0.053000 12.789000 18.462999 58.360001
235 2 4 0.053000 12.693000 20.261999 58.271999
236 2 4 0.053000 11.701000 20.101000 55.964001
237 2 4 0.053000 11.608000 18.304001 56.141998
238 2 4 0.053000 13.985000 18.162001 56.493000
239 2 4 0.053000 14.247000 19.906000 56.187000
240 2 4 0.053000 13.447000 19.632999 53.848000
241 2 4 0.053000 12.926000 17.983000 54.157001
242 2 4 0.053000 15.608000 17.166000 55.751999
243 2 4 0.053000 16.513000 16.627001 54.390999
244 2 4 0.053000 14.850000 15.208000 53.528000
245 2 4 0.053000 13.497000 15.987000 54.358002
246 2 4 0.053000 15.594000 14.353000 55.891998
247 2 4 0.053000 13.969000 13.823000 55.318001
248 2 4 0.053000 12.883000 15.719000 56.535999
249 2 4 0.053000 14.461000 16.125999 57.314999
250 2 4 0.053000 14.484000 13.894000 58.424999
251 2 4 0.053000 12.956000 13.459000 57.557999
252 2 4 0.053000 11.786000 15.411000 58.578999
253 2 4 0.053000 13.269000 15.834000 59.516998
254 2 4 0.053000 13.119000 13.636000 60.716999
255 2 4 0.053000 11.685000 13.188000 59.709000
256 2 4 0.053000 10.430000 15.168000 60.563000
257 2 4 0.053000 11.830000 15.620000 61.612000
258 2 4 0.053000 11.611000 13.445000 62.835999
259 2 4 0.053000 10.243000 12.970000 61.750000
260 2 4 0.053000 8.925000 14.943000 62.511002
261 2 4 0.053000 10.274000 15.435000 63.613998
262 2 4 0.053000 10.036000 13.266000 64.855003
263 2 4 0.053000 8.699000 12.774000 63.743000
264 2 4 0.053000 8.681000 15.242000 65.600998
265 2 4 0.053000 7.805000 13.687000 65.872002
266 2 4 0.053000 7.346000 14.745000 64.484001
267 2 4 0.053000 14.751000 18.837999 51.923000
268 2 4 0.053000 14.192000 17.173000 52.254002
269 2 4 0.053000 15.953000 17.511000 52.110001
270 2 4 0.053000 15.825000 20.176001 53.653000
271 2 4 0.053000 17.083000 18.895000 53.750999
272 2 4 0.053000 16.256001 19.437000 55.237000
273 2 5 -1.000000 15.628000 19.952999 53.209000
274 1 1 -0.106000 38.985001 8.749000 40.568001
275 1 1 -0.106000 37.799000 9.671000 40.862000
276 1 1 -0.106000 38.273998 11.107000 41.102001
277 1 1 -0.106000 37.090000 12.023000 41.423000
278 1 1 -0.106000 37.566002 13.452000 41.692001
279 1 1 -0.106000 36.382999 14.365000 42.021000
280 1 1 -0.106000 36.861000 15.791000 42.299999
281 1 1 -0.106000 35.680000 16.711000 42.615002
282 1 1 -0.106000 36.164001 18.139000 42.875999
283 1 1 -0.106000 34.985001 19.075001 43.160000
284 1 1 -0.106000 35.477001 20.507999 43.393002
285 1 1 0.301100 34.286999 21.459999 43.646000
286 1 2 -0.628400 34.650002 22.893000 43.872002
287 1 3 0.248100 35.351002 23.466999 42.698002
288 1 3 0.248100 35.494999 23.052999 45.080002
289 1 3 0.248100 33.393002 23.652000 44.078999
290 1 1 -0.106000 38.514999 7.305000 40.361000
291 1 1 -0.106000 39.702999 6.378000 40.091000
292 1 1 -0.106000 39.236000 4.932000 39.903000
293 1 3 -0.159000 40.418999 4.003000 39.644001
294 1 4 0.053000 40.054001 2.963000 39.514999
295 1 4 0.053000 41.124001 4.030000 40.502998
296 1 4 0.053000 40.955002 4.311000 38.721001
297 1 4 0.053000 38.535999 4.872000 39.042000
298 1 4 0.053000 38.705002 4.588000 40.818001
299 1 4 0.053000 40.407001 6.426000 40.951000
300 1 4 0.053000 40.234001 6.718000 39.174000
301 1 4 0.053000 37.808998 7.267000 39.500999
302 1 4 0.053000 37.983002 6.960000 41.276001
303 1 4 0.053000 39.692001 8.780000 41.425999
304 1 4 0.053000 39.512001 9.103000 39.654999
305 1 4 0.053000 37.271000 9.307000 41.771000
306 1 4 0.053000 37.091000 9.653000 40.004002
307 1 4 0.053000 38.799000 11.482000 40.195999
308 1 4 0.053000 38.985001 11.117000 41.959000
309 1 4 0.053000 36.563000 11.640000 42.324001
310 1 4 0.053000 36.381001 12.023000 40.564999
311 1 4 0.053000 38.094002 13.841000 40.792000
312 1 4 0.053000 38.276001 13.447000 42.548000
313 1 4 0.053000 35.854000 13.974000 42.918999
314 1 4 0.053000 35.674999 14.373000 41.162998
315 1 4 0.053000 37.396000 16.177999 41.403999
316 1 4 0.053000 37.564999 15.784000 43.161999
317 1 4 0.053000 35.141998 16.332001 43.512001
318 1 4 0.053000 34.979000 16.712999 41.750999
319 1 4 0.053000 36.710999 18.504999 41.980000
320 1 4 0.053000 36.856998 18.141001 43.745998
321 1 4 0.053000 34.435001 18.719000 44.058998
322 1 4 0.053000 34.292999 19.063000 42.289001
323 1 4 0.053000 36.036999 20.825001 42.488998
324 1 4 0.053000 36.164001 20.500000 44.264000
325 1 4 0.053000 33.726002 21.073000 44.528000
326 1 4 0.053000 33.605999 21.385000 42.766998
327 1 4 0.053000 32.727001 23.576000 43.189999
328 1 4 0.053000 33.597000 24.733000 44.254002
329 1 4 0.053000 32.832001 23.268999 44.960999
330 1 4 0.053000 36.491001 22.577999 44.952000
331 1 4 0.053000 35.004002 22.606001 45.973000
332 1 4 0.053000 35.685001 24.129000 45.293999
333 1 4 0.053000 36.348999 23.006001 42.548000
334 1 4 0.053000 35.528999 24.558001 42.833000
335 1 4 0.053000 34.755001 23.329000 41.769001
336 1 5 -1.000000 36.473999 23.641001 43.533001
337 1 1 -0.106000 35.054001 6.685000 24.879000
338 1 1 -0.106000 33.580002 6.534000 24.492001
339 1 1 -0.106000 32.721001 7.577000 25.212999
340 1 1 -0.106000 31.252001 7.446000 24.804001
341 1 1 -0.106000 30.395000 8.494000 25.518000
342 1 1 -0.106000 28.929001 8.369000 25.100000
343 1 1 -0.106000 28.066000 9.405000 25.823000
344 1 1 -0.106000 26.598000 9.264000 25.415001
345 1 1 -0.106000 25.721001 10.275000 26.158001
346 1 1 -0.106000 24.249001 10.107000 25.761999
347 1 1 -0.106000 23.358000 11.103000 26.537001
348 1 1 0.301100 21.895000 11.019000 26.240000
349 1 2 -0.628400 21.349001 9.682000 26.577000
350 1 3 0.248100 21.613001 11.325000 24.816000
351 1 3 0.248100 21.202999 12.028000 27.077999
352 1 3 0.248100 37.396999 5.833000 24.500000
353 1 1 -0.106000 38.264000 4.825000 23.740000
354 1 1 -0.106000 39.744999 5.008000 24.086000
355 1 1 -0.106000 40.612999 4.012000 23.322001
356 1 3 -0.159000 41.679001 4.168000 23.587999
357 1 4 0.053000 40.493999 4.158000 22.228001
358 1 4 0.053000 40.327999 2.972000 23.586000
359 1 4 0.053000 39.896999 4.857000 25.177000
360 1 4 0.053000 40.066002 6.039000 23.820999
361 1 4 0.053000 38.123001 4.973000 22.646999
362 1 4 0.053000 37.946999 3.792000 24.006001
363 1 4 0.053000 37.528999 5.686000 25.594999
364 1 4 0.053000 37.720001 6.865000 24.235001
365 1 4 0.053000 35.792999 5.805000 23.042000
366 1 4 0.053000 35.587002 4.634000 24.406000
367 1 4 0.053000 35.396000 7.710000 24.615000
368 1 4 0.053000 35.165001 6.542000 25.976999
369 1 4 0.053000 33.228001 5.514000 24.757999
370 1 4 0.053000 33.476002 6.675000 23.392000
371 1 4 0.053000 33.082001 8.595000 24.951000
372 1 4 0.053000 32.813999 7.434000 26.313000
373 1 4 0.053000 30.885000 6.428000 25.065001
374 1 4 0.053000 31.164000 7.587000 23.704000
375 1 4 0.053000 30.764999 9.512000 25.259001
376 1 4 0.053000 30.480000 8.350000 26.617001
377 1 4 0.053000 28.563000 7.349000 25.353001
378 1 4 0.053000 28.841999 8.518000 24.002001
379 1 4 0.053000 28.423000 10.428000 25.573000
380 1 4 0.053000 28.157000 9.253000 26.922001
381 1 4 0.053000 26.252001 8.235000 25.656000
382 1 4 0.053000 26.503000 9.425000 24.318001
383 1 4 0.053000 26.056000 11.307000 25.917000
384 1 4 0.053000 25.826000 10.111000 27.254000
385 1 4 0.053000 23.952000 9.064000 25.997000
386 1 4 0.053000 24.164000 10.275000 24.669001
387 1 4 0.053000 23.726999 12.132000 26.312000
388 1 4 0.053000 23.525999 10.927000 27.625000
389 1 4 0.053000 21.371000 11.834000 28.160999
390 1 4 0.053000 20.104000 12.016000 26.902000
391 1 4 0.053000 21.568001 13.056000 26.854000
392 1 4 0.053000 22.034000 10.552000 24.139000
393 1 4 0.053000 22.037001 12.313000 24.528000
394 1 4 0.053000 20.518000 11.350000 24.622999
395 1 4 0.053000 21.757000 8.891000 25.913000
396 1 4 0.053000 20.243000 9.658000 26.447001
397 1 4 0.053000 21.577999 9.412000 27.632000
398 1 4 0.053000 21.058001 9.526000 25.205999
399 1 5 -1.000000 23.048000 53.645000 62.675999
400 1 1 -0.106000 20.826000 52.477001 62.452999
401 1 1 -0.106000 19.306000 52.632000 62.553001
402 1 1 -0.106000 18.601000 51.327000 62.174999
403 1 1 -0.106000 17.082001 51.485001 62.266998
404 1 1 -0.106000 16.379000 50.182999 61.879002
405 1 1 -0.106000 14.859000 50.332001 61.984001
406 1 1 -0.106000 14.162000 49.021999 61.612000
407 1 1 -0.106000 12.642000 49.151001 61.744999
408 1 1 -0.106000 11.955000 47.826000 61.396000
409 1 1 -0.106000 10.424000 47.944000 61.563999
410 1 1 -0.106000 9.648000 46.701000 61.264000
411 1 1 0.301100 10.042000 45.585999 62.159000
412 1 2 -0.628400 9.820000 46.284000 59.849998
413 1 3 0.248100 8.213000 46.994999 61.491001
414 1 3 0.248100 23.750999 54.969002 62.993000
415 1 3 0.248100 25.268000 54.830002 62.844002
416 1 1 -0.106000 25.971001 56.158001 63.140999
417 1 1 -0.106000 27.483000 56.026001 62.981998
418 1 1 -0.106000 27.966999 57.000999 63.200001
419 1 3 -0.159000 27.736000 55.727001 61.943001
420 1 4 0.053000 27.879000 55.264999 63.688000
421 1 4 0.053000 25.743999 56.478001 64.181000
422 1 4 0.053000 25.605000 56.939999 62.439999
423 1 4 0.053000 25.506001 54.515999 61.803001
424 1 4 0.053000 25.636999 54.049999 63.546001
425 1 4 0.053000 23.506001 55.277000 64.035004
426 1 4 0.053000 23.385000 55.752998 62.292999
427 1 4 0.053000 23.299999 53.341000 61.636002
428 1 4 0.053000 23.403999 52.858002 63.376999
429 1 4 0.053000 21.180000 54.585999 62.105999
430 1 4 0.053000 21.268999 54.085999 63.842999
431 1 4 0.053000 21.165001 51.676998 63.147999
432 1 4 0.053000 21.094999 52.185001 61.411999
433 1 4 0.053000 18.973000 53.437000 61.862999
434 1 4 0.053000 19.032000 52.912998 63.594002
435 1 4 0.053000 18.931000 50.515999 62.863998
436 1 4 0.053000 18.879999 51.047001 61.134998
437 1 4 0.053000 16.754000 52.298000 61.581001
438 1 4 0.053000 16.804001 51.759998 63.307999
439 1 4 0.053000 16.712999 49.369999 62.562000
440 1 4 0.053000 16.652000 49.910000 60.835999
441 1 4 0.053000 14.516000 51.140999 61.301998
442 1 4 0.053000 14.591000 50.605999 63.028000
443 1 4 0.053000 14.520000 48.216000 62.289001
444 1 4 0.053000 14.421000 48.750000 60.563999
445 1 4 0.053000 12.275000 49.951000 61.066002
446 1 4 0.053000 12.392000 49.428001 62.792999
447 1 4 0.053000 12.356000 47.046001 62.077000
448 1 4 0.053000 12.215000 47.566002 60.349998
449 1 4 0.053000 10.074000 48.771000 60.902000
450 1 4 0.053000 10.224000 48.258999 62.613998
451 1 4 0.053000 8.028000 47.299000 62.546001
452 1 4 0.053000 7.579000 46.103001 61.283001
453 1 4 0.053000 7.861000 47.820000 60.830002
454 1 4 0.053000 10.862000 45.966000 59.639000
455 1 4 0.053000 9.557000 47.112999 59.154999
456 1 4 0.053000 9.170000 45.414001 59.610001
457 1 4 0.053000 11.083000 45.250999 61.966999
458 1 4 0.053000 9.394000 44.695999 61.997002
459 1 4 0.053000 9.957000 45.883999 63.228001
460 1 4 0.053000 10.490000 44.904999 61.008999
461 1 4 0.053000 10.424000 40.556000 77.875000
462 1 5 -1.000000 11.842000 40.562000 78.452003
463 1 1 -0.106000 13.816000 41.992001 79.089996
464 1 1 -0.106000 14.373000 43.416000 79.150002
465 1 1 -0.106000 15.803000 43.417000 79.692001
466 1 1 -0.106000 16.363001 44.840000 79.741997
467 1 1 -0.106000 17.788000 44.847000 80.297997
468 1 1 -0.106000 18.334999 46.275002 80.361000
469 1 1 -0.106000 19.749001 46.294998 80.947998
470 1 1 -0.106000 20.278000 47.731998 81.031998
471 1 1 -0.106000 21.691000 47.758999 81.654999
472 1 1 -0.106000 22.302000 49.116001 81.801003
473 1 1 -0.106000 21.485001 49.987999 82.679001
474 1 1 0.301100 22.483999 49.771999 80.483002
475 1 2 -0.628400 23.636999 48.949001 82.425003
476 1 3 0.248100 9.890000 39.125000 77.755997
477 1 3 0.248100 8.481000 39.117001 77.156998
478 1 3 0.248100 7.954000 37.686001 77.018997
479 1 1 -0.106000 6.553000 37.674000 76.412003
480 1 1 -0.106000 6.197000 36.625999 76.320999
481 1 1 -0.106000 6.569000 38.133999 75.402000
482 1 3 -0.159000 5.848000 38.236000 77.059998
483 1 4 0.053000 7.917000 37.201000 78.018997
484 1 4 0.053000 8.633000 37.098000 76.363998
485 1 4 0.053000 8.509000 39.594002 76.152000
486 1 4 0.053000 7.799000 39.702000 77.813004
487 1 4 0.053000 9.868000 38.653999 78.764999
488 1 4 0.053000 10.569000 38.535000 77.100998
489 1 4 0.053000 10.440000 41.021999 76.864998
490 1 4 0.053000 9.753000 41.150002 78.533997
491 1 4 0.053000 12.506000 39.959000 77.792999
492 1 4 0.053000 11.833000 40.105999 79.466003
493 1 4 0.053000 11.733000 42.598999 79.199997
494 1 4 0.053000 12.390000 42.442001 77.521004
495 1 4 0.053000 14.465000 41.375000 78.431000
496 1 4 0.053000 13.817000 41.549999 80.112000
497 1 4 0.053000 13.727000 44.037998 79.809998
498 1 4 0.053000 14.367000 43.855999 78.127998
499 1 4 0.053000 16.448000 42.792000 79.033997
500 1 4 0.053000 15.808000 42.981998 80.716003
501 1 4 0.053000 15.713000 45.464001 80.394997
502 1 4 0.053000 16.364000 45.273998 78.718002
503 1 4 0.053000 18.445000 44.227001 79.649002
504 1 4 0.053000 17.782000 44.410999 81.321999
505 1 4 0.053000 17.666000 46.890999 81.001999
506 1 4 0.053000 18.351999 46.709000 79.336998
507 1 4 0.053000 20.426001 45.686001 80.309998
508 1 4 0.053000 19.726000 45.854000 81.969002
509 1 4 0.053000 19.572001 48.317001 81.657997
510 1 4 0.053000 20.295000 48.154999 80.007004
511 1 4 0.053000 22.351000 47.117001 81.025002
512 1 4 0.053000 21.625000 47.273998 82.656998
513 1 4 0.053000 23.555000 48.472000 83.428001
514 1 4 0.053000 24.146000 49.929001 82.559998
515 1 4 0.053000 24.298000 48.310001 81.795998
516 1 4 0.053000 21.510000 50.004002 80.001999
517 1 4 0.053000 23.072001 49.125999 79.792999
518 1 4 0.053000 23.021000 50.740002 80.589996
519 1 4 0.053000 20.504999 50.231998 82.220001
520 1 4 0.053000 21.995001 50.959999 82.862999
521 1 4 0.053000 21.302999 49.504002 83.664001
522 1 4 0.053000 21.285000 50.820000 81.558998
523 1 4 0.053000 21.891001 53.424000 74.972000
524 1 4 0.053000 20.378000 53.283001 74.790001
525 1 5 -1.000000 20.049999 52.118000 73.851997
526 1 1 -0.106000 18.209000 50.851002 72.688004
527 1 1 -0.106000 16.698000 50.734001 72.477997
528 1 1 -0.106000 16.372000 49.595001 71.510002
529 1 1 -0.106000 14.861000 49.466000 71.308998
530 1 1 -0.106000 14.541000 48.314999 70.352997
531 1 1 -0.106000 13.029000 48.155998 70.170998
532 1 1 -0.106000 12.718000 46.983002 69.234001
533 1 1 -0.106000 11.192000 46.799999 69.075996
534 1 1 -0.106000 10.770000 45.669998 68.191002
535 1 1 -0.106000 11.257000 44.367001 68.705002
536 1 1 -0.106000 11.250000 45.863998 66.801003
537 1 1 0.301100 9.288000 45.637001 68.171997
538 1 2 -0.628400 22.223000 54.610001 75.884003
539 1 3 0.248100 23.737000 54.764999 76.046997
540 1 3 0.248100 24.070000 55.963001 76.942001
541 1 3 0.248100 25.580000 56.126999 77.098000
542 1 1 -0.106000 25.792999 57.000999 77.748001
543 1 1 -0.106000 26.052000 56.294998 76.107002
544 1 1 -0.106000 26.018999 55.220001 77.564003
545 1 3 -0.159000 23.618000 55.817001 77.946999
546 1 4 0.053000 23.653999 56.890999 76.495003
547 1 4 0.053000 24.198999 54.917999 75.045998
548 1 4 0.053000 24.156000 53.838001 76.497002
549 1 4 0.053000 21.754999 54.450001 76.880997
550 1 4 0.053000 21.806000 55.540001 75.438004
551 1 4 0.053000 22.365000 53.587002 73.977997
552 1 4 0.053000 22.299999 52.488998 75.415001
553 1 4 0.053000 19.974001 54.223999 74.355003
554 1 4 0.053000 19.898001 53.110001 75.778000
555 1 4 0.053000 20.445000 51.171001 74.280998
556 1 4 0.053000 20.535999 52.296001 72.865997
557 1 4 0.053000 18.145000 52.946999 73.226997
558 1 4 0.053000 18.047001 51.807999 74.629997
559 1 4 0.053000 18.599001 49.895000 73.106003
560 1 4 0.053000 18.702999 51.040001 71.709000
561 1 4 0.053000 16.308001 51.691002 72.063004
562 1 4 0.053000 16.205999 50.540001 73.456001
563 1 4 0.053000 16.768999 48.640999 71.922997
564 1 4 0.053000 16.860001 49.791000 70.529999
565 1 4 0.053000 14.457000 50.416000 70.892998
566 1 4 0.053000 14.378000 49.271000 72.292000
567 1 4 0.053000 14.958000 47.372002 70.768997
568 1 4 0.053000 15.015000 48.512001 69.365997
569 1 4 0.053000 12.604000 49.092999 69.749001
570 1 4 0.053000 12.562000 47.965000 71.163002
571 1 4 0.053000 13.171000 46.070000 69.671997
572 1 4 0.053000 13.191000 47.191002 68.251999
573 1 4 0.053000 10.775000 47.757000 68.683998
574 1 4 0.053000 10.765000 46.651001 70.095001
575 1 4 0.053000 8.877000 45.479000 69.194000
576 1 4 0.053000 8.910000 44.813000 67.526001
577 1 4 0.053000 8.869000 46.591999 67.778999
578 1 4 0.053000 12.358000 45.810001 66.737000
579 1 4 0.053000 10.921000 46.848000 66.399002
580 1 4 0.053000 10.857000 45.068001 66.129997
581 1 4 0.053000 12.363000 44.291000 68.653000
582 1 4 0.053000 10.858000 43.523998 68.098999
583 1 4 0.053000 10.942000 44.210999 69.761002
584 1 4 0.053000 12.021000 44.257999 67.525002
585 1 4 0.053000 42.952000 13.162000 52.801998
586 1 4 0.053000 43.432999 14.222000 51.808998
587 1 4 0.053000 43.153999 15.631000 52.340000
588 1 5 -1.000000 43.612000 16.690001 51.333000
589 1 1 -0.106000 43.756001 19.156000 50.839001
590 1 1 -0.106000 43.442001 20.562000 51.352001
591 1 1 -0.106000 43.903000 21.624001 50.351002
592 1 1 -0.106000 43.601002 23.028999 50.877998
593 1 1 -0.106000 44.089001 24.099001 49.897999
594 1 1 -0.106000 43.806000 25.502001 50.446999
595 1 1 -0.106000 44.328999 26.584000 49.476002
596 1 1 -0.106000 44.119999 27.997999 49.917999
597 1 1 -0.106000 44.812000 28.273001 51.200001
598 1 1 -0.106000 42.676998 28.313000 50.056999
599 1 1 -0.106000 44.693001 28.888000 48.880001
600 1 1 0.301100 43.200001 11.752000 52.257999
601 1 2 -0.628400 42.695999 10.692000 53.241001
602 1 3 0.248100 42.924999 9.281000 52.688000
603 1 3 0.248100 42.414001 8.222000 53.660999
604 1 3 0.248100 42.590000 7.212000 53.236000
605 1 1 -0.106000 41.325001 8.352000 53.833000
606 1 1 -0.106000 42.950001 8.300000 54.631001
607 1 1 -0.106000 44.011002 9.118000 52.514999
608 1 3 -0.159000 42.389999 9.167000 51.721001
609 1 4 0.053000 41.606998 10.843000 53.415001
610 1 4 0.053000 43.233002 10.802000 54.208000
611 1 4 0.053000 44.290001 11.610000 52.084000
612 1 4 0.053000 42.664001 11.636000 51.289001
613 1 4 0.053000 41.861000 13.296000 52.978001
614 1 4 0.053000 43.488998 13.288000 53.768002
615 1 4 0.053000 42.898998 14.086000 50.841999
616 1 4 0.053000 44.525002 14.101000 51.634998
617 1 4 0.053000 43.688999 15.779000 53.303001
618 1 4 0.053000 42.061001 15.745000 52.514999
619 1 4 0.053000 43.081001 16.534000 50.368999
620 1 4 0.053000 44.707001 16.587000 51.161999
621 1 4 0.053000 43.837002 18.260000 52.814999
622 1 4 0.053000 42.212002 18.195999 52.021999
623 1 4 0.053000 43.228001 18.990999 49.873001
624 1 4 0.053000 44.851002 19.059999 50.669998
625 1 4 0.053000 43.964001 20.722000 52.320999
626 1 4 0.053000 42.346001 20.660000 51.515999
627 1 4 0.053000 43.382000 21.472000 49.380001
628 1 4 0.053000 44.999001 21.521000 50.189999
629 1 4 0.053000 44.113998 23.167999 51.855000
630 1 4 0.053000 42.504002 23.138000 51.030998
631 1 4 0.053000 43.575001 23.971001 48.919998
632 1 4 0.053000 45.185001 23.980000 49.745998