LAMMPS data file containing the original structures and the polarizable gold

20160 atoms
16169 bonds
24756 angles
35334 dihedrals
0 impropers

7 atom types
7 bond types
13 angle types
15 dihedral types

-48.366589 106.812408 xlo xhi
-3.000000 61.997501 ylo yhi
-3.000000 96.387703 zlo zhi

Masses

1 12.011150
2 14.006700
3 12.011150
4 1.007970
5 79.908997
6 195.960007
7 1.000000

Atoms

1 1 1 -0.106000 -39.423817 5.162461 23.966898
2 1 1 -0.106000 -38.168266 6.024883 23.839634
3 1 1 -0.106000 -36.903946 5.176980 23.984486
4 1 1 -0.106000 -35.649014 6.045429 23.884163
5 1 1 -0.106000 -34.385399 5.203553 24.057953
6 1 1 -0.106000 -33.131935 6.072934 23.966555
7 1 1 -0.106000 -31.869841 5.231990 24.150263
8 1 1 -0.106000 -30.613369 6.095531 24.045017
9 1 1 -0.106000 -29.353964 5.245390 24.212620
10 1 1 -0.106000 -28.090170 6.095324 24.075743
11 1 1 -0.106000 -26.834726 5.230891 24.218189
12 1 1 0.301100 -25.558252 6.080517 24.045931
13 1 2 -0.628400 -24.267447 5.334955 24.151039
14 1 3 0.248100 -24.163885 4.287493 23.112883
15 1 3 0.248100 -24.105993 4.724085 25.489040
16 1 3 0.248100 -23.163126 6.298503 23.945919
17 1 1 -0.106000 -40.689945 6.014341 23.855928
18 1 1 -0.106000 -41.945782 5.154963 24.007154
19 1 1 -0.106000 -43.211956 6.008894 23.916162
20 1 3 -0.159000 -44.465698 5.156663 24.077473
21 1 4 0.053000 -45.366589 5.798906 24.010214
22 1 4 0.053000 -44.461403 4.653751 25.064632
23 1 4 0.053000 -44.514271 4.392821 23.277086
24 1 4 0.053000 -43.248837 6.517765 22.931505
25 1 4 0.053000 -43.199711 6.777452 24.714884
26 1 4 0.053000 -41.921021 4.646339 24.993254
27 1 4 0.053000 -41.962032 4.387151 23.207251
28 1 4 0.053000 -40.705517 6.521538 22.868254
29 1 4 0.053000 -40.678822 6.784824 24.654598
30 1 4 0.053000 -39.416218 4.654766 24.954208
31 1 4 0.053000 -39.424984 4.393595 23.167685
32 1 4 0.053000 -38.177223 6.797102 24.636385
33 1 4 0.053000 -38.163498 6.528356 22.850893
34 1 4 0.053000 -36.883026 4.405508 23.188282
35 1 4 0.053000 -36.916740 4.673009 24.973858
36 1 4 0.053000 -35.677979 6.820379 24.676003
37 1 4 0.053000 -35.626736 6.543996 22.892229
38 1 4 0.053000 -34.351265 4.425932 23.266352
39 1 4 0.053000 -34.412613 4.704674 25.048662
40 1 4 0.053000 -33.168098 6.852418 24.756065
41 1 4 0.053000 -33.102386 6.567961 22.973953
42 1 4 0.053000 -31.838657 4.449211 23.364519
43 1 4 0.053000 -31.895744 4.741189 25.145027
44 1 4 0.053000 -30.635487 6.878870 24.829178
45 1 4 0.053000 -30.592340 6.585026 23.049030
46 1 4 0.053000 -29.345787 4.457201 23.432814
47 1 4 0.053000 -29.367529 4.762358 25.211945
48 1 4 0.053000 -28.087317 6.883204 24.856052
49 1 4 0.053000 -28.086744 6.579720 23.076950
50 1 4 0.053000 -26.876957 4.445551 23.440071
51 1 4 0.053000 -26.854942 4.757427 25.218210
52 1 4 0.053000 -25.584951 6.885478 24.812901
53 1 4 0.053000 -25.617775 6.573973 23.051247
54 1 4 0.053000 -23.230453 6.776487 22.945883
55 1 4 0.053000 -22.170088 5.801735 24.013407
56 1 4 0.053000 -23.186722 7.102657 24.712030
57 1 4 0.053000 -24.855524 3.927311 25.668465
58 1 4 0.053000 -24.206713 5.484606 26.290577
59 1 4 0.053000 -23.105854 4.248817 25.590816
60 1 4 0.053000 -24.905691 3.480158 23.269686
61 1 4 0.053000 -23.162523 3.804085 23.133801
62 1 4 0.053000 -24.317556 4.713141 22.098900
63 1 5 -1.000000 -24.142687 3.346657 24.156757
64 1 1 -0.106000 -14.227314 5.162461 23.966898
65 1 1 -0.106000 -12.971767 6.024883 23.839634
66 1 1 -0.106000 -11.707447 5.176980 23.984486
67 1 1 -0.106000 -10.452511 6.045429 23.884163
68 1 1 -0.106000 -9.188900 5.203553 24.057953
69 1 1 -0.106000 -7.935436 6.072934 23.966555
70 1 1 -0.106000 -6.673340 5.231990 24.150263
71 1 1 -0.106000 -5.416870 6.095531 24.045017
72 1 1 -0.106000 -4.157463 5.245390 24.212620
73 1 1 -0.106000 -2.893669 6.095324 24.075743
74 1 1 -0.106000 -1.638226 5.230891 24.218189
75 1 1 0.301100 -0.361752 6.080517 24.045931
76 1 2 -0.628400 0.929054 5.334955 24.151039
77 1 3 0.248100 1.032616 4.287493 23.112883
78 1 3 0.248100 1.090508 4.724085 25.489040
79 1 3 0.248100 2.033375 6.298503 23.945919
80 1 1 -0.106000 -15.493444 6.014341 23.855928
81 1 1 -0.106000 -16.749281 5.154963 24.007154
82 1 1 -0.106000 -18.015453 6.008894 23.916162
83 1 3 -0.159000 -19.269197 5.156663 24.077473
84 1 4 0.053000 -20.170088 5.798906 24.010214
85 1 4 0.053000 -19.264902 4.653751 25.064632
86 1 4 0.053000 -19.317770 4.392821 23.277086
87 1 4 0.053000 -18.052334 6.517765 22.931505
88 1 4 0.053000 -18.003208 6.777452 24.714884
89 1 4 0.053000 -16.724520 4.646339 24.993254
90 1 4 0.053000 -16.765532 4.387151 23.207251
91 1 4 0.053000 -15.509016 6.521538 22.868254
92 1 4 0.053000 -15.482321 6.784824 24.654598
93 1 4 0.053000 -14.219719 4.654766 24.954208
94 1 4 0.053000 -14.228485 4.393595 23.167685
95 1 4 0.053000 -12.980724 6.797102 24.636385
96 1 4 0.053000 -12.966995 6.528356 22.850893
97 1 4 0.053000 -11.686523 4.405508 23.188282
98 1 4 0.053000 -11.720238 4.673009 24.973858
99 1 4 0.053000 -10.481476 6.820379 24.676003
100 1 4 0.053000 -10.430237 6.543996 22.892229
101 1 4 0.053000 -9.154762 4.425932 23.266352
102 1 4 0.053000 -9.216114 4.704674 25.048662
103 1 4 0.053000 -7.971600 6.852418 24.756065
104 1 4 0.053000 -7.905884 6.567961 22.973953
105 1 4 0.053000 -6.642159 4.449211 23.364519
106 1 4 0.053000 -6.699245 4.741189 25.145027
107 1 4 0.053000 -5.438984 6.878870 24.829178
108 1 4 0.053000 -5.395840 6.585026 23.049030
109 1 4 0.053000 -4.149288 4.457201 23.432814
110 1 4 0.053000 -4.171028 4.762358 25.211945
111 1 4 0.053000 -2.890816 6.883204 24.856052
112 1 4 0.053000 -2.890244 6.579720 23.076950
113 1 4 0.053000 -1.680454 4.445551 23.440071
114 1 4 0.053000 -1.658443 4.757427 25.218210
115 1 4 0.053000 -0.388451 6.885478 24.812901
116 1 4 0.053000 -0.421276 6.573973 23.051247
117 1 4 0.053000 1.966045 6.776487 22.945883
118 1 4 0.053000 3.026413 5.801735 24.013407
119 1 4 0.053000 2.009777 7.102657 24.712030
120 1 4 0.053000 0.340977 3.927311 25.668465
121 1 4 0.053000 0.989788 5.484606 26.290577
122 1 4 0.053000 2.090649 4.248817 25.590816
123 1 4 0.053000 0.290810 3.480158 23.269686
124 1 4 0.053000 2.033978 3.804085 23.133801
125 1 4 0.053000 0.878944 4.713141 22.098900
126 1 5 -1.000000 1.053814 3.346657 24.156757
127 1 1 -0.106000 10.969185 5.162461 23.966898
128 1 1 -0.106000 12.224735 6.024883 23.839634
129 1 1 -0.106000 13.489056 5.176980 23.984486
130 1 1 -0.106000 14.743988 6.045429 23.884163
131 1 1 -0.106000 16.007603 5.203553 24.057953
132 1 1 -0.106000 17.261066 6.072934 23.966555
133 1 1 -0.106000 18.523159 5.231990 24.150263
134 1 1 -0.106000 19.779629 6.095531 24.045017
135 1 1 -0.106000 21.039036 5.245390 24.212620
136 1 1 -0.106000 22.302830 6.095324 24.075743
137 1 1 -0.106000 23.558277 5.230891 24.218189
138 1 1 0.301100 24.834751 6.080517 24.045931
139 1 2 -0.628400 26.125553 5.334955 24.151039
140 1 3 0.248100 26.229115 4.287493 23.112883
141 1 3 0.248100 26.287006 4.724085 25.489040
142 1 3 0.248100 27.229877 6.298503 23.945919
143 1 1 -0.106000 9.703056 6.014341 23.855928
144 1 1 -0.106000 8.447220 5.154963 24.007154
145 1 1 -0.106000 7.181046 6.008894 23.916162
146 1 3 -0.159000 5.927303 5.156663 24.077473
147 1 4 0.053000 5.026413 5.798906 24.010214
148 1 4 0.053000 5.931599 4.653751 25.064632
149 1 4 0.053000 5.878731 4.392821 23.277086
150 1 4 0.053000 7.144165 6.517765 22.931505
151 1 4 0.053000 7.193291 6.777452 24.714884
152 1 4 0.053000 8.471981 4.646339 24.993254
153 1 4 0.053000 8.430969 4.387151 23.207251
154 1 4 0.053000 9.687485 6.521538 22.868254
155 1 4 0.053000 9.714180 6.784824 24.654598
156 1 4 0.053000 10.976784 4.654766 24.954208
157 1 4 0.053000 10.968018 4.393595 23.167685
158 1 4 0.053000 12.215778 6.797102 24.636385
159 1 4 0.053000 12.229504 6.528356 22.850893
160 1 4 0.053000 13.509975 4.405508 23.188282
161 1 4 0.053000 13.476261 4.673009 24.973858
162 1 4 0.053000 14.715023 6.820379 24.676003
163 1 4 0.053000 14.766266 6.543996 22.892229
164 1 4 0.053000 16.041737 4.425932 23.266352
165 1 4 0.053000 15.980389 4.704674 25.048662
166 1 4 0.053000 17.224903 6.852418 24.756065
167 1 4 0.053000 17.290615 6.567961 22.973953
168 1 4 0.053000 18.554344 4.449211 23.364519
169 1 4 0.053000 18.497257 4.741189 25.145027
170 1 4 0.053000 19.757519 6.878870 24.829178
171 1 4 0.053000 19.800663 6.585026 23.049030
172 1 4 0.053000 21.047215 4.457201 23.432814
173 1 4 0.053000 21.025471 4.762358 25.211945
174 1 4 0.053000 22.305683 6.883204 24.856052
175 1 4 0.053000 22.306255 6.579720 23.076950
176 1 4 0.053000 23.516041 4.445551 23.440071
177 1 4 0.053000 23.538059 4.757427 25.218210
178 1 4 0.053000 24.808048 6.885478 24.812901
179 1 4 0.053000 24.775227 6.573973 23.051247
180 1 4 0.053000 27.162548 6.776487 22.945883
181 1 4 0.053000 28.222912 5.801735 24.013407
182 1 4 0.053000 27.206280 7.102657 24.712030
183 1 4 0.053000 25.537479 3.927311 25.668465
184 1 4 0.053000 26.186291 5.484606 26.290577
185 1 4 0.053000 27.287144 4.248817 25.590816
186 1 4 0.053000 25.487309 3.480158 23.269686
187 1 4 0.053000 27.230480 3.804085 23.133801
188 1 4 0.053000 26.075443 4.713141 22.098900
189 1 5 -1.000000 26.250317 3.346657 24.156757
190 2 3 -0.159000 31.196072 5.422941 24.253757
191 2 1 -0.106000 32.324963 6.302593 24.036022
192 2 1 -0.106000 33.690502 5.819735 24.359844
193 2 1 -0.106000 34.808338 6.719346 24.133430
194 2 1 -0.106000 36.217800 6.290160 24.384741
195 2 1 -0.106000 36.476162 5.981874 25.755363
196 2 1 -0.106000 37.948383 5.703676 25.949705
197 2 1 -0.106000 38.283672 5.453118 27.319180
198 2 1 -0.106000 39.799709 5.350471 27.474770
199 2 1 -0.106000 40.247051 5.223186 28.842621
200 2 1 -0.106000 41.773609 5.398130 28.930492
201 2 1 0.301100 42.320957 5.457021 30.286816
202 2 2 -0.628400 43.741772 5.915216 30.422361
203 2 3 0.248100 44.658092 5.132768 29.783264
204 2 3 0.248100 44.110523 5.936561 31.764862
205 2 1 0.301100 43.946941 7.089175 29.883259
206 2 1 -0.106000 43.141361 8.043569 30.522320
207 2 1 -0.106000 42.816914 9.052816 29.667278
208 2 1 -0.106000 41.765926 8.672827 28.672682
209 2 1 -0.106000 41.151234 9.656965 27.958065
210 2 1 -0.106000 40.009174 9.171541 27.120190
211 2 1 -0.106000 39.257183 10.103371 26.440182
212 2 1 -0.106000 38.058971 9.566963 25.716028
213 2 1 -0.106000 37.240765 10.475711 25.065058
214 2 1 -0.106000 36.009869 9.921700 24.409590
215 2 1 -0.106000 35.165607 10.817381 23.769190
216 2 3 -0.159000 33.931545 10.261314 23.139925
217 2 4 0.053000 30.222912 5.798906 24.010214
218 2 4 0.053000 31.176014 5.168964 25.248562
219 2 4 0.053000 31.328800 4.653183 23.660982
220 2 4 0.053000 32.153912 7.070547 24.622650
221 2 4 0.053000 32.304913 6.557454 23.040398
222 2 4 0.053000 33.858707 5.053836 23.767647
223 2 4 0.053000 33.693806 5.565030 25.353992
224 2 4 0.053000 34.645634 7.487009 24.723204
225 2 4 0.053000 34.761204 6.981163 23.140381
226 2 4 0.053000 36.931889 6.995522 24.127207
227 2 4 0.053000 36.408001 5.541367 23.773191
228 2 4 0.053000 35.831318 5.239307 26.031948
229 2 4 0.053000 36.245945 6.730139 26.352600
230 2 4 0.053000 38.561001 6.463889 25.655050
231 2 4 0.053000 38.211933 4.961607 25.356344
232 2 4 0.053000 37.745121 4.661713 27.629318
233 2 4 0.053000 37.965961 6.184344 27.902254
234 2 4 0.053000 40.259068 6.160137 27.114990
235 2 4 0.053000 40.166454 4.628677 26.906431
236 2 4 0.053000 39.908482 4.383134 29.220432
237 2 4 0.053000 39.793468 5.913719 29.399862
238 2 4 0.053000 41.960041 6.224820 28.483988
239 2 4 0.053000 42.275730 4.730898 28.381100
240 2 4 0.053000 42.211781 4.585780 30.690754
241 2 4 0.053000 41.646702 5.985962 30.843376
242 2 4 0.053000 43.743694 7.056145 28.873569
243 2 4 0.053000 45.020374 7.373818 29.918423
244 2 4 0.053000 43.710865 8.347402 31.362207
245 2 4 0.053000 42.161198 7.726920 30.860949
246 2 4 0.053000 43.730152 9.440922 29.241671
247 2 4 0.053000 42.357761 9.709034 30.268435
248 2 4 0.053000 40.930172 8.219275 29.161966
249 2 4 0.053000 42.199635 8.079823 27.989588
250 2 4 0.053000 41.924267 10.113914 27.396412
251 2 4 0.053000 40.729099 10.266867 28.638390
252 2 4 0.053000 39.280933 8.697921 27.717674
253 2 4 0.053000 40.411076 8.561236 26.427826
254 2 4 0.053000 39.942745 10.568409 25.796803
255 2 4 0.053000 38.880314 10.718959 27.139086
256 2 4 0.053000 37.399586 9.098218 26.381687
257 2 4 0.053000 38.417416 8.947785 25.012312
258 2 4 0.053000 37.875828 10.934722 24.374704
259 2 4 0.053000 36.900166 11.100815 25.771502
260 2 4 0.053000 35.386837 9.468689 25.114670
261 2 4 0.053000 36.338673 9.289673 23.704889
262 2 4 0.053000 35.774136 11.272459 23.055496
263 2 4 0.053000 34.835590 11.451390 24.470676
264 2 4 0.053000 34.230564 9.633420 22.420689
265 2 4 0.053000 33.336056 10.927253 22.685158
266 2 4 0.053000 33.295589 9.816026 23.840662
267 2 4 0.053000 44.041088 5.064083 32.167595
268 2 4 0.053000 43.432575 6.477179 32.313698
269 2 4 0.053000 45.151394 6.278643 31.913151
270 2 4 0.053000 44.532070 4.244153 30.134537
271 2 4 0.053000 45.722347 5.410879 29.935730
272 2 4 0.053000 44.483196 5.112379 28.759745
273 2 5 -1.000000 44.478855 4.358252 30.614868
274 1 1 -0.106000 61.362186 5.162461 23.966898
275 1 1 -0.106000 62.617733 6.024883 23.839634
276 1 1 -0.106000 63.882053 5.176980 23.984486
277 1 1 -0.106000 65.136993 6.045429 23.884163
278 1 1 -0.106000 66.400604 5.203553 24.057953
279 1 1 -0.106000 67.654068 6.072934 23.966555
280 1 1 -0.106000 68.916168 5.231990 24.150263
281 1 1 -0.106000 70.172638 6.095531 24.045017
282 1 1 -0.106000 71.432037 5.245390 24.212620
283 1 1 -0.106000 72.695831 6.095324 24.075743
284 1 1 -0.106000 73.951279 5.230891 24.218189
285 1 1 0.301100 75.227753 6.080517 24.045931
286 1 2 -0.628400 76.518555 5.334955 24.151039
287 1 3 0.248100 76.622116 4.287493 23.112883
288 1 3 0.248100 76.680008 4.724085 25.489040
289 1 3 0.248100 77.622879 6.298503 23.945919
290 1 1 -0.106000 60.096058 6.014341 23.855928
291 1 1 -0.106000 58.840221 5.154963 24.007154
292 1 1 -0.106000 57.574047 6.008894 23.916162
293 1 3 -0.159000 56.320309 5.156663 24.077473
294 1 4 0.053000 55.419415 5.798906 24.010214
295 1 4 0.053000 56.324604 4.653751 25.064632
296 1 4 0.053000 56.271732 4.392821 23.277086
297 1 4 0.053000 57.537167 6.517765 22.931505
298 1 4 0.053000 57.586292 6.777452 24.714884
299 1 4 0.053000 58.864986 4.646339 24.993254
300 1 4 0.053000 58.823971 4.387151 23.207251
301 1 4 0.053000 60.080486 6.521538 22.868254
302 1 4 0.053000 60.107182 6.784824 24.654598
303 1 4 0.053000 61.369785 4.654766 24.954208
304 1 4 0.053000 61.361019 4.393595 23.167685
305 1 4 0.053000 62.608776 6.797102 24.636385
306 1 4 0.053000 62.622509 6.528356 22.850893
307 1 4 0.053000 63.902981 4.405508 23.188282
308 1 4 0.053000 63.869267 4.673009 24.973858
309 1 4 0.053000 65.108032 6.820379 24.676003
310 1 4 0.053000 65.159271 6.543996 22.892229
311 1 4 0.053000 66.434738 4.425932 23.266352
312 1 4 0.053000 66.373383 4.704674 25.048662
313 1 4 0.053000 67.617905 6.852418 24.756065
314 1 4 0.053000 67.683624 6.567961 22.973953
315 1 4 0.053000 68.947342 4.449211 23.364519
316 1 4 0.053000 68.890259 4.741189 25.145027
317 1 4 0.053000 70.150513 6.878870 24.829178
318 1 4 0.053000 70.193665 6.585026 23.049030
319 1 4 0.053000 71.440216 4.457201 23.432814
320 1 4 0.053000 71.418472 4.762358 25.211945
321 1 4 0.053000 72.698685 6.883204 24.856052
322 1 4 0.053000 72.699265 6.579720 23.076950
323 1 4 0.053000 73.909042 4.445551 23.440071
324 1 4 0.053000 73.931061 4.757427 25.218210
325 1 4 0.053000 75.201050 6.885478 24.812901
326 1 4 0.053000 75.168228 6.573973 23.051247
327 1 4 0.053000 77.555542 6.776487 22.945883
328 1 4 0.053000 78.615921 5.801735 24.013407
329 1 4 0.053000 77.599274 7.102657 24.712030
330 1 4 0.053000 75.930481 3.927311 25.668465
331 1 4 0.053000 76.579285 5.484606 26.290577
332 1 4 0.053000 77.680145 4.248817 25.590816
333 1 4 0.053000 75.880310 3.480158 23.269686
334 1 4 0.053000 77.623474 3.804085 23.133801
335 1 4 0.053000 76.468445 4.713141 22.098900
336 1 5 -1.000000 76.643311 3.346657 24.156757
337 1 1 -0.106000 86.558685 5.162461 23.966898
338 1 1 -0.106000 87.814240 6.024883 23.839634
339 1 1 -0.106000 89.078552 5.176980 23.984486
340 1 1 -0.106000 90.333481 6.045429 23.884163
341 1 1 -0.106000 91.597107 5.203553 24.057953
342 1 1 -0.106000 92.850571 6.072934 23.966555
343 1 1 -0.106000 94.112656 5.231990 24.150263
344 1 1 -0.106000 95.369125 6.095531 24.045017
345 1 1 -0.106000 96.628540 5.245390 24.212620
346 1 1 -0.106000 97.892334 6.095324 24.075743
347 1 1 -0.106000 99.147781 5.230891 24.218189
348 1 1 0.301100 100.424255 6.080517 24.045931
349 1 2 -0.628400 101.715057 5.334955 24.151039
350 1 3 0.248100 101.818619 4.287493 23.112883
351 1 3 0.248100 101.876511 4.724085 25.489040
352 1 3 0.248100 102.819382 6.298503 23.945919
353 1 1 -0.106000 85.292557 6.014341 23.855928
354 1 1 -0.106000 84.036728 5.154963 24.007154
355 1 1 -0.106000 82.770554 6.008894 23.916162
356 1 3 -0.159000 81.516815 5.156663 24.077473
357 1 4 0.053000 80.615921 5.798906 24.010214
358 1 4 0.053000 81.521103 4.653751 25.064632
359 1 4 0.053000 81.468231 4.392821 23.277086
360 1 4 0.053000 82.733673 6.517765 22.931505
361 1 4 0.053000 82.782791 6.777452 24.714884
362 1 4 0.053000 84.061478 4.646339 24.993254
363 1 4 0.053000 84.020477 4.387151 23.207251
364 1 4 0.053000 85.276978 6.521538 22.868254
365 1 4 0.053000 85.303680 6.784824 24.654598
366 1 4 0.053000 86.566284 4.654766 24.954208
367 1 4 0.053000 86.557510 4.393595 23.167685
368 1 4 0.053000 87.805283 6.797102 24.636385
369 1 4 0.053000 87.819000 6.528356 22.850893
370 1 4 0.053000 89.099472 4.405508 23.188282
371 1 4 0.053000 89.065765 4.673009 24.973858
372 1 4 0.053000 90.304520 6.820379 24.676003
373 1 4 0.053000 90.355759 6.543996 22.892229
374 1 4 0.053000 91.631241 4.425932 23.266352
375 1 4 0.053000 91.569885 4.704674 25.048662
376 1 4 0.053000 92.814407 6.852418 24.756065
377 1 4 0.053000 92.880112 6.567961 22.973953
378 1 4 0.053000 94.143845 4.449211 23.364519
379 1 4 0.053000 94.086761 4.741189 25.145027
380 1 4 0.053000 95.347015 6.878870 24.829178
381 1 4 0.053000 95.390167 6.585026 23.049030
382 1 4 0.053000 96.636719 4.457201 23.432814
383 1 4 0.053000 96.614975 4.762358 25.211945
384 1 4 0.053000 97.895187 6.883204 24.856052
385 1 4 0.053000 97.895752 6.579720 23.076950
386 1 4 0.053000 99.105545 4.445551 23.440071
387 1 4 0.053000 99.127563 4.757427 25.218210
388 1 4 0.053000 100.397552 6.885478 24.812901
389 1 4 0.053000 100.364731 6.573973 23.051247
390 1 4 0.053000 102.752045 6.776487 22.945883
391 1 4 0.053000 103.812408 5.801735 24.013407
392 1 4 0.053000 102.795776 7.102657 24.712030
393 1 4 0.053000 101.126984 3.927311 25.668465
394 1 4 0.053000 101.775787 5.484606 26.290577
395 1 4 0.053000 102.876648 4.248817 25.590816
396 1 4 0.053000 101.076813 3.480158 23.269686
397 1 4 0.053000 102.819977 3.804085 23.133801
398 1 4 0.053000 101.664948 4.713141 22.098900
399 1 5 -1.000000 101.839813 3.346657 24.156757
400 1 1 -0.106000 -39.423817 15.267195 23.966898
401 1 1 -0.106000 -38.168266 16.129616 23.839634
402 1 1 -0.106000 -36.903946 15.281713 23.984486
403 1 1 -0.106000 -35.649014 16.150162 23.884163
404 1 1 -0.106000 -34.385399 15.308287 24.057953
405 1 1 -0.106000 -33.131935 16.177668 23.966555
406 1 1 -0.106000 -31.869841 15.336723 24.150263
407 1 1 -0.106000 -30.613369 16.200264 24.045017
408 1 1 -0.106000 -29.353964 15.350123 24.212620
409 1 1 -0.106000 -28.090170 16.200058 24.075743
410 1 1 -0.106000 -26.834726 15.335625 24.218189
411 1 1 0.301100 -25.558252 16.185249 24.045931
412 1 2 -0.628400 -24.267447 15.439688 24.151039
413 1 3 0.248100 -24.163885 14.392226 23.112883
414 1 3 0.248100 -24.105993 14.828818 25.489040
415 1 3 0.248100 -23.163126 16.403236 23.945919
416 1 1 -0.106000 -40.689945 16.119074 23.855928
417 1 1 -0.106000 -41.945782 15.259697 24.007154
418 1 1 -0.106000 -43.211956 16.113628 23.916162
419 1 3 -0.159000 -44.465698 15.261396 24.077473
420 1 4 0.053000 -45.366589 15.903640 24.010214
421 1 4 0.053000 -44.461403 14.758485 25.064632
422 1 4 0.053000 -44.514271 14.497554 23.277086
423 1 4 0.053000 -43.248837 16.622498 22.931505
424 1 4 0.053000 -43.199711 16.882185 24.714884
425 1 4 0.053000 -41.921021 14.751073 24.993254
426 1 4 0.053000 -41.962032 14.491884 23.207251
427 1 4 0.053000 -40.705517 16.626270 22.868254
428 1 4 0.053000 -40.678822 16.889557 24.654598
429 1 4 0.053000 -39.416218 14.759499 24.954208
430 1 4 0.053000 -39.424984 14.498328 23.167685
431 1 4 0.053000 -38.177223 16.901836 24.636385
432 1 4 0.053000 -38.163498 16.633089 22.850893
433 1 4 0.053000 -36.883026 14.510242 23.188282
434 1 4 0.053000 -36.916740 14.777742 24.973858
435 1 4 0.053000 -35.677979 16.925112 24.676003
436 1 4 0.053000 -35.626736 16.648729 22.892229
437 1 4 0.053000 -34.351265 14.530666 23.266352
438 1 4 0.053000 -34.412613 14.809408 25.048662
439 1 4 0.053000 -33.168098 16.957151 24.756065
440 1 4 0.053000 -33.102386 16.672695 22.973953
441 1 4 0.053000 -31.838657 14.553945 23.364519
442 1 4 0.053000 -31.895744 14.845922 25.145027
443 1 4 0.053000 -30.635487 16.983604 24.829178
444 1 4 0.053000 -30.592340 16.689758 23.049030
445 1 4 0.053000 -29.345787 14.561934 23.432814
446 1 4 0.053000 -29.367529 14.867091 25.211945
447 1 4 0.053000 -28.087317 16.987938 24.856052
448 1 4 0.053000 -28.086744 16.684454 23.076950
449 1 4 0.053000 -26.876957 14.550285 23.440071
450 1 4 0.053000 -26.854942 14.862161 25.218210
451 1 4 0.053000 -25.584951 16.990211 24.812901
452 1 4 0.053000 -25.617775 16.678707 23.051247
453 1 4 0.053000 -23.230453 16.881220 22.945883
454 1 4 0.053000 -22.170088 15.906469 24.013407
455 1 4 0.053000 -23.186722 17.207390 24.712030
456 1 4 0.053000 -24.855524 14.032045 25.668465
457 1 4 0.053000 -24.206713 15.589339 26.290577
458 1 4 0.053000 -23.105854 14.353551 25.590816
459 1 4 0.053000 -24.905691 13.584891 23.269686
460 1 4 0.053000 -23.162523 13.908818 23.133801
461 1 4 0.053000 -24.317556 14.817875 22.098900
462 1 5 -1.000000 -24.142687 13.451390 24.156757
463 1 1 -0.106000 -14.227314 15.267195 23.966898
464 1 1 -0.106000 -12.971767 16.129616 23.839634
465 1 1 -0.106000 -11.707447 15.281713 23.984486
466 1 1 -0.106000 -10.452511 16.150162 23.884163
467 1 1 -0.106000 -9.188900 15.308287 24.057953
468 1 1 -0.106000 -7.935436 16.177668 23.966555
469 1 1 -0.106000 -6.673340 15.336723 24.150263
470 1 1 -0.106000 -5.416870 16.200264 24.045017
471 1 1 -0.106000 -4.157463 15.350123 24.212620
472 1 1 -0.106000 -2.893669 16.200058 24.075743
473 1 1 -0.106000 -1.638226 15.335625 24.218189
474 1 1 0.301100 -0.361752 16.185249 24.045931
475 1 2 -0.628400 0.929054 15.439688 24.151039
476 1 3 0.248100 1.032616 14.392226 23.112883
477 1 3 0.248100 1.090508 14.828818 25.489040
478 1 3 0.248100 2.033375 16.403236 23.945919
479 1 1 -0.106000 -15.493444 16.119074 23.855928
480 1 1 -0.106000 -16.749281 15.259697 24.007154
481 1 1 -0.106000 -18.015453 16.113628 23.916162
482 1 3 -0.159000 -19.269197 15.261396 24.077473
483 1 4 0.053000 -20.170088 15.903640 24.010214
484 1 4 0.053000 -19.264902 14.758485 25.064632
485 1 4 0.053000 -19.317770 14.497554 23.277086
486 1 4 0.053000 -18.052334 16.622498 22.931505
487 1 4 0.053000 -18.003208 16.882185 24.714884
488 1 4 0.053000 -16.724520 14.751073 24.993254
489 1 4 0.053000 -16.765532 14.491884 23.207251
490 1 4 0.053000 -15.509016 16.626270 22.868254
491 1 4 0.053000 -15.482321 16.889557 24.654598
492 1 4 0.053000 -14.219719 14.759499 24.954208
493 1 4 0.053000 -14.228485 14.498328 23.167685
494 1 4 0.053000 -12.980724 16.901836 24.636385
495 1 4 0.053000 -12.966995 16.633089 22.850893
496 1 4 0.053000 -11.686523 14.510242 23.188282
497 1 4 0.053000 -11.720238 14.777742 24.973858
498 1 4 0.053000 -10.481476 16.925112 24.676003
499 1 4 0.053000 -10.430237 16.648729 22.892229
500 1 4 0.053000 -9.154762 14.530666 23.266352
501 1 4 0.053000 -9.216114 14.809408 25.048662
502 1 4 0.053000 -7.971600 16.957151 24.756065
503 1 4 0.053000 -7.905884 16.672695 22.973953
504 1 4 0.053000 -6.642159 14.553945 23.364519
505 1 4 0.053000 -6.699245 14.845922 25.145027
506 1 4 0.053000 -5.438984 16.983604 24.829178
507 1 4 0.053000 -5.395840 16.689758 23.049030
508 1 4 0.053000 -4.149288 14.561934 23.432814
509 1 4 0.053000 -4.171028 14.867091 25.211945
510 1 4 0.053000 -2.890816 16.987938 24.856052
511 1 4 0.053000 -2.890244 16.684454 23.076950
512 1 4 0.053000 -1.680454 14.550285 23.440071
513 1 4 0.053000 -1.658443 14.862161 25.218210
514 1 4 0.053000 -0.388451 16.990211 24.812901
515 1 4 0.053000 -0.421276 16.678707 23.051247
516 1 4 0.053000 1.966045 16.881220 22.945883
517 1 4 0.053000 3.026413 15.906469 24.013407
518 1 4 0.053000 2.009777 17.207390 24.712030
519 1 4 0.053000 0.340977 14.032045 25.668465
520 1 4 0.053000 0.989788 15.589339 26.290577
521 1 4 0.053000 2.090649 14.353551 25.590816
522 1 4 0.053000 0.290810 13.584891 23.269686
523 1 4 0.053000 2.033978 13.908818 23.133801
524 1 4 0.053000 0.878944 14.817875 22.098900
525 1 5 -1.000000 1.053814 13.451390 24.156757
526 1 1 -0.106000 10.969185 15.267195 23.966898
527 1 1 -0.106000 12.224735 16.129616 23.839634
528 1 1 -0.106000 13.489056 15.281713 23.984486
529 1 1 -0.106000 14.743988 16.150162 23.884163
530 1 1 -0.106000 16.007603 15.308287 24.057953
531 1 1 -0.106000 17.261066 16.177668 23.966555
532 1 1 -0.106000 18.523159 15.336723 24.150263
533 1 1 -0.106000 19.779629 16.200264 24.045017
534 1 1 -0.106000 21.039036 15.350123 24.212620
535 1 1 -0.106000 22.302830 16.200058 24.075743
536 1 1 -0.106000 23.558277 15.335625 24.218189
537 1 1 0.301100 24.834751 16.185249 24.045931
538 1 2 -0.628400 26.125553 15.439688 24.151039
539 1 3 0.248100 26.229115 14.392226 23.112883
540 1 3 0.248100 26.287006 14.828818 25.489040
541 1 3 0.248100 27.229877 16.403236 23.945919
542 1 1 -0.106000 9.703056 16.119074 23.855928
543 1 1 -0.106000 8.447220 15.259697 24.007154
544 1 1 -0.106000 7.181046 16.113628 23.916162
545 1 3 -0.159000 5.927303 15.261396 24.077473
546 1 4 0.053000 5.026413 15.903640 24.010214
547 1 4 0.053000 5.931599 14.758485 25.064632
548 1 4 0.053000 5.878731 14.497554 23.277086
549 1 4 0.053000 7.144165 16.622498 22.931505
550 1 4 0.053000 7.193291 16.882185 24.714884
551 1 4 0.053000 8.471981 14.751073 24.993254
552 1 4 0.053000 8.430969 14.491884 23.207251
553 1 4 0.053000 9.687485 16.626270 22.868254
554 1 4 0.053000 9.714180 16.889557 24.654598
555 1 4 0.053000 10.976784 14.759499 24.954208
556 1 4 0.053000 10.968018 14.498328 23.167685
557 1 4 0.053000 12.215778 16.901836 24.636385
558 1 4 0.053000 12.229504 16.633089 22.850893
559 1 4 0.053000 13.509975 14.510242 23.188282
560 1 4 0.053000 13.476261 14.777742 24.973858
561 1 4 0.053000 14.715023 16.925112 24.676003
562 1 4 0.053000 14.766266 16.648729 22.892229
563 1 4 0.053000 16.041737 14.530666 23.266352
564 1 4 0.053000 15.980389 14.809408 25.048662
565 1 4 0.053000 17.224903 16.957151 24.756065
566 1 4 0.053000 17.290615 16.672695 22.973953
567 1 4 0.053000 18.554344 14.553945 23.364519
568 1 4 0.053000 18.497257 14.845922 25.145027
569 1 4 0.053000 19.757519 16.983604 24.829178
570 1 4 0.053000 19.800663 16.689758 23.049030
571 1 4 0.053000 21.047215 14.561934 23.432814
572 1 4 0.053000 21.025471 14.867091 25.211945
573 1 4 0.053000 22.305683 16.987938 24.856052
574 1 4 0.053000 22.306255 16.684454 23.076950
575 1 4 0.053000 23.516041 14.550285 23.440071
576 1 4 0.053000 23.538059 14.862161 25.218210
577 1 4 0.053000 24.808048 16.990211 24.812901
578 1 4 0.053000 24.775227 16.678707 23.051247
579 1 4 0.053000 27.162548 16.881220 22.945883
580 1 4 0.053000 28.222912 15.906469 24.013407
581 1 4 0.053000 27.206280 17.207390 24.712030
582 1 4 0.053000 25.537479 14.032045 25.668465
583 1 4 0.053000 26.186291 15.589339 26.290577
584 1 4 0.053000 27.287144 14.353551 25.590816
585 1 4 0.053000 25.487309 13.584891 23.269686
586 1 4 0.053000 27.230480 13.908818 23.133801
587 1 4 0.053000 26.075443 14.817875 22.098900
588 1 5 -1.000000 26.250317 13.451390 24.156757
589 1 1 -0.106000 36.165684 15.267195 23.966898
590 1 1 -0.106000 37.421230 16.129616 23.839634
591 1 1 -0.106000 38.685551 15.281713 23.984486
592 1 1 -0.106000 39.940487 16.150162 23.884163
593 1 1 -0.106000 41.204105 15.308287 24.057953
594 1 1 -0.106000 42.457561 16.177668 23.966555
595 1 1 -0.106000 43.719662 15.336723 24.150263
596 1 1 -0.106000 44.976131 16.200264 24.045017
597 1 1 -0.106000 46.235538 15.350123 24.212620
598 1 1 -0.106000 47.499332 16.200058 24.075743
599 1 1 -0.106000 48.754772 15.335625 24.218189
600 1 1 0.301100 50.031246 16.185249 24.045931
601 1 2 -0.628400 51.322056 15.439688 24.151039
602 1 3 0.248100 51.425617 14.392226 23.112883
603 1 3 0.248100 51.483509 14.828818 25.489040
604 1 3 0.248100 52.426373 16.403236 23.945919
605 1 1 -0.106000 34.899555 16.119074 23.855928
606 1 1 -0.106000 33.643719 15.259697 24.007154
607 1 1 -0.106000 32.377544 16.113628 23.916162
608 1 3 -0.159000 31.123806 15.261396 24.077473
609 1 4 0.053000 30.222912 15.903640 24.010214
610 1 4 0.053000 31.128101 14.758485 25.064632
611 1 4 0.053000 31.075230 14.497554 23.277086
612 1 4 0.053000 32.340664 16.622498 22.931505
613 1 4 0.053000 32.389790 16.882185 24.714884
614 1 4 0.053000 33.668484 14.751073 24.993254
615 1 4 0.053000 33.627468 14.491884 23.207251
616 1 4 0.053000 34.883984 16.626270 22.868254
617 1 4 0.053000 34.910679 16.889557 24.654598
618 1 4 0.053000 36.173283 14.759499 24.954208
619 1 4 0.053000 36.164516 14.498328 23.167685
620 1 4 0.053000 37.412273 16.901836 24.636385
621 1 4 0.053000 37.426006 16.633089 22.850893
622 1 4 0.053000 38.706478 14.510242 23.188282
623 1 4 0.053000 38.672764 14.777742 24.973858
624 1 4 0.053000 39.911526 16.925112 24.676003
625 1 4 0.053000 39.962765 16.648729 22.892229
626 1 4 0.053000 41.238239 14.530666 23.266352
627 1 4 0.053000 41.176884 14.809408 25.048662
628 1 4 0.053000 42.421406 16.957151 24.756065
629 1 4 0.053000 42.487118 16.672695 22.973953
630 1 4 0.053000 43.750843 14.553945 23.364519
631 1 4 0.053000 43.693752 14.845922 25.145027
632 1 4 0.053000 44.954014 16.983604 24.829178
633 1 4 0.053000 44.997158 16.689758 23.049030