LAMMPS data file containing the original structures and the polarizable gold

19908 atoms
16043 bonds
24756 angles
35334 dihedrals
0 impropers

7 atom types
7 bond types
13 angle types
15 dihedral types

-48.859940 106.319061 xlo xhi
-3.000000 61.997501 ylo yhi
-3.000000 96.678406 zlo zhi

Masses

1 12.011150
2 14.006700
3 12.011150
4 1.007970
5 79.908997
6 195.960007
7 1.000000

Atoms

1 1 1 -0.106000 38.050999 37.261002 478.838989
2 1 1 -0.106000 39.394001 37.403999 478.118988
3 1 1 -0.106000 39.581001 38.830002 477.595001
4 1 1 -0.106000 40.912998 38.964001 476.851990
5 1 1 -0.106000 41.089001 40.381001 476.303009
6 1 1 -0.106000 42.415001 40.512001 475.552002
7 1 1 -0.106000 42.584999 41.925999 474.994995
8 1 1 -0.106000 43.917999 42.064999 474.256012
9 1 1 -0.106000 44.089001 43.487999 473.716003
10 1 1 -0.106000 45.433998 43.646000 473.002991
11 1 1 -0.106000 45.608002 45.080002 472.489990
12 1 1 0.301100 46.980000 45.250999 471.800995
13 1 2 -0.628400 47.264999 46.620998 471.272003
14 1 3 0.248100 47.257000 47.632999 472.355011
15 1 3 0.248100 46.291000 47.009998 470.223999
16 1 3 0.248100 48.618000 46.601002 470.665009
17 1 1 -0.106000 37.847000 35.826000 479.334015
18 1 1 -0.106000 36.493000 35.678001 480.032990
19 1 1 -0.106000 36.278999 34.237999 480.510986
20 1 3 -0.159000 34.924999 34.084999 481.199005
21 1 4 0.053000 34.794998 33.034000 481.532990
22 1 4 0.053000 34.105000 34.340000 480.494995
23 1 4 0.053000 34.867001 34.750999 482.085999
24 1 4 0.053000 37.081001 33.958000 481.227997
25 1 4 0.053000 36.319000 33.546001 479.641998
26 1 4 0.053000 35.681999 35.950001 479.321991
27 1 4 0.053000 36.451000 36.367001 480.904999
28 1 4 0.053000 38.662998 35.560001 480.042999
29 1 4 0.053000 37.887001 35.131001 478.464996
30 1 4 0.053000 37.230000 37.521999 478.134003
31 1 4 0.053000 38.018002 37.960999 479.703003
32 1 4 0.053000 39.424000 36.695000 477.260986
33 1 4 0.053000 40.221001 37.153999 478.820007
34 1 4 0.053000 39.557999 39.544998 478.446991
35 1 4 0.053000 38.749001 39.075001 476.898010
36 1 4 0.053000 40.936001 38.241001 476.006989
37 1 4 0.053000 41.749001 38.729000 477.548004
38 1 4 0.053000 41.067001 41.109001 477.144989
39 1 4 0.053000 40.250000 40.612999 475.609985
40 1 4 0.053000 42.437000 39.782001 474.710999
41 1 4 0.053000 43.254002 40.285000 476.246002
42 1 4 0.053000 42.556000 42.654999 475.834991
43 1 4 0.053000 41.750000 42.152000 474.295990
44 1 4 0.053000 43.952999 41.341999 473.411987
45 1 4 0.053000 44.750000 41.838001 474.958008
46 1 4 0.053000 44.039001 44.205002 474.563995
47 1 4 0.053000 43.263000 43.715000 473.005005
48 1 4 0.053000 45.490002 42.935001 472.148987
49 1 4 0.053000 46.254002 43.410999 473.717987
50 1 4 0.053000 45.528999 45.764000 473.359985
51 1 4 0.053000 44.784000 45.294998 471.778992
52 1 4 0.053000 47.035000 44.511002 470.967987
53 1 4 0.053000 47.764999 44.970001 472.540009
54 1 4 0.053000 49.391998 46.327000 471.416992
55 1 4 0.053000 48.889999 47.598000 470.250000
56 1 4 0.053000 48.674999 45.862999 469.832001
57 1 4 0.053000 45.266998 47.127998 470.638000
58 1 4 0.053000 46.256001 46.252998 469.410004
59 1 4 0.053000 46.562000 47.990002 469.770996
60 1 4 0.053000 46.243000 47.766998 472.786987
61 1 4 0.053000 47.567001 48.631001 471.971985
62 1 4 0.053000 47.955002 47.348000 473.174011
63 1 5 -1.000000 46.157001 48.228001 471.704987
64 1 1 -0.106000 8.443000 44.428001 523.078003
65 1 1 -0.106000 8.645000 45.945999 523.057983
66 1 1 -0.106000 10.114000 46.294998 522.804993
67 1 1 -0.106000 10.311000 47.811001 522.755005
68 1 1 -0.106000 11.778000 48.159000 522.492981
69 1 1 -0.106000 11.973000 49.674999 522.434021
70 1 1 -0.106000 13.441000 50.028000 522.187012
71 1 1 -0.106000 13.631000 51.546001 522.145996
72 1 1 -0.106000 15.103000 51.909000 521.932007
73 1 1 -0.106000 15.287000 53.431000 521.919983
74 1 1 -0.106000 16.777000 53.799000 521.739014
75 1 1 0.301100 17.077999 55.264999 521.726990
76 1 2 -0.628400 16.680000 55.910999 523.000000
77 1 3 0.248100 16.403000 55.945999 520.594971
78 1 3 0.248100 18.542000 55.425999 521.560974
79 1 3 0.248100 6.762000 42.561001 523.289978
80 1 1 -0.106000 5.285000 42.210999 523.492004
81 1 1 -0.106000 5.073000 40.694000 523.458984
82 1 1 -0.106000 3.600000 40.342999 523.648987
83 1 3 -0.159000 3.474000 39.241001 523.619019
84 1 4 0.053000 2.989000 40.794998 522.838989
85 1 4 0.053000 3.239000 40.716999 524.630981
86 1 4 0.053000 5.665000 40.215000 524.268005
87 1 4 0.053000 5.414000 40.290001 522.481018
88 1 4 0.053000 4.685000 42.681999 522.682007
89 1 4 0.053000 4.943000 42.612000 524.471985
90 1 4 0.053000 7.368000 42.098000 524.101013
91 1 4 0.053000 7.104000 42.153999 522.312012
92 1 4 0.053000 6.359000 44.535000 522.494019
93 1 4 0.053000 6.637000 44.491001 524.281006
94 1 4 0.053000 8.773000 44.006001 522.101990
95 1 4 0.053000 9.061000 43.983002 523.888977
96 1 4 0.053000 8.323000 46.376999 524.031006
97 1 4 0.053000 8.021000 46.386002 522.247009
98 1 4 0.053000 10.434000 45.855000 521.835022
99 1 4 0.053000 10.740000 45.865002 523.617981
100 1 4 0.053000 9.993000 48.257000 523.724976
101 1 4 0.053000 9.682000 48.237000 521.942993
102 1 4 0.053000 12.097000 47.710999 521.525024
103 1 4 0.053000 12.407000 47.737000 523.307983
104 1 4 0.053000 11.647000 50.123001 523.400024
105 1 4 0.053000 11.349000 50.097000 521.616028
106 1 4 0.053000 13.773000 49.587002 521.221985
107 1 4 0.053000 14.061000 49.603001 523.007019
108 1 4 0.053000 13.285000 51.980000 523.109985
109 1 4 0.053000 13.020000 51.973000 521.320007
110 1 4 0.053000 15.456000 51.483002 520.966980
111 1 4 0.053000 15.709000 51.473999 522.757996
112 1 4 0.053000 14.910000 53.826000 522.885010
113 1 4 0.053000 14.678000 53.846001 521.091003
114 1 4 0.053000 17.125000 53.339001 520.784973
115 1 4 0.053000 17.346001 53.312000 522.564026
116 1 4 0.053000 19.097000 54.942001 522.396973
117 1 4 0.053000 18.832001 56.500999 521.544006
118 1 4 0.053000 18.893000 54.967999 520.607971
119 1 4 0.053000 15.298000 55.935001 520.706970
120 1 4 0.053000 16.663000 55.463001 519.625977
121 1 4 0.053000 16.704000 57.015999 520.538025
122 1 4 0.053000 15.579000 55.910000 523.137024
123 1 4 0.053000 16.997000 56.978001 523.023010
124 1 4 0.053000 17.143999 55.396000 523.870972
125 1 4 0.053000 15.757000 56.671001 522.254028
126 1 5 -1.000000 32.789001 19.368000 178.804001
127 1 1 -0.106000 33.625000 17.663000 180.460007
128 1 1 -0.106000 33.824001 17.341000 181.944000
129 1 1 -0.106000 34.408001 15.938000 182.121002
130 1 1 -0.106000 34.598999 15.613000 183.604004
131 1 1 -0.106000 35.173000 14.206000 183.781006
132 1 1 -0.106000 35.379002 13.883000 185.261993
133 1 1 -0.106000 35.970001 12.481000 185.431000
134 1 1 -0.106000 36.209999 12.161000 186.908997
135 1 1 -0.106000 36.827000 10.766000 187.065002
136 1 1 -0.106000 37.103001 10.455000 188.552994
137 1 1 -0.106000 37.721001 9.120000 188.824997
138 1 1 0.301100 39.039001 8.987000 188.160004
139 1 2 -0.628400 36.833000 8.015000 188.389999
140 1 3 0.248100 37.924999 9.004000 190.289001
141 1 3 0.248100 32.146000 20.747999 178.628998
142 1 3 0.248100 31.899000 21.049999 177.147995
143 1 1 -0.106000 31.238001 22.421000 176.973999
144 1 1 -0.106000 30.980000 22.721001 175.498993
145 1 1 -0.106000 30.499001 23.716999 175.401001
146 1 3 -0.159000 30.305000 21.954000 175.063995
147 1 4 0.053000 31.937000 22.729000 174.934998
148 1 4 0.053000 31.896999 23.212000 177.391998
149 1 4 0.053000 30.268000 22.441000 177.518005
150 1 4 0.053000 31.233000 20.267000 176.722000
151 1 4 0.053000 32.868000 21.034000 176.602997
152 1 4 0.053000 32.816002 21.525000 179.059998
153 1 4 0.053000 31.174999 20.770000 179.173004
154 1 4 0.053000 32.116001 18.597000 178.367004
155 1 4 0.053000 33.762001 19.341000 178.266998
156 1 4 0.053000 32.037998 19.093000 180.817993
157 1 4 0.053000 33.693001 19.818001 180.727005
158 1 4 0.053000 34.605000 17.618000 179.936005
159 1 4 0.053000 32.943001 16.906000 180.011993
160 1 4 0.053000 32.845001 17.396000 182.466003
161 1 4 0.053000 34.514000 18.090000 182.393997
162 1 4 0.053000 35.389999 15.878000 181.600006
163 1 4 0.053000 33.717999 15.193000 181.667999
164 1 4 0.053000 33.617001 15.676000 184.125000
165 1 4 0.053000 35.292999 16.355000 184.056000
166 1 4 0.053000 36.151001 14.143000 183.253998
167 1 4 0.053000 34.477001 13.463000 183.334000
168 1 4 0.053000 34.404999 13.942000 185.796005
169 1 4 0.053000 36.075001 14.630000 185.705002
170 1 4 0.053000 36.937000 12.427000 184.884003
171 1 4 0.053000 35.271000 11.731000 184.998001
172 1 4 0.053000 35.247002 12.207000 187.462006
173 1 4 0.053000 36.904999 12.918000 187.335999
174 1 4 0.053000 37.773998 10.747000 186.488007
175 1 4 0.053000 36.120998 10.026000 186.634995
176 1 4 0.053000 36.134998 10.537000 189.100998
177 1 4 0.053000 37.769001 11.258000 188.945999
178 1 4 0.053000 38.598999 9.806000 190.664993
179 1 4 0.053000 38.384998 8.026000 190.557007
180 1 4 0.053000 36.959000 9.084000 190.837997
181 1 4 0.053000 36.710999 7.995000 187.285995
182 1 4 0.053000 35.825001 8.105000 188.854004
183 1 4 0.053000 37.257000 7.027000 188.677002
184 1 4 0.053000 38.943001 8.967000 187.054001
185 1 4 0.053000 39.536999 8.033000 188.445999
186 1 4 0.053000 39.715000 9.825000 188.440994
187 1 4 0.053000 38.479000 7.940000 187.399994
188 1 4 0.053000 38.688999 14.416000 67.540001
189 1 5 -1.000000 37.243000 14.848000 67.288002
190 2 3 -0.159000 47.750999 52.375999 142.227997
191 2 1 -0.106000 47.698002 51.210999 143.210007
192 2 1 -0.106000 47.782001 49.863998 142.481995
193 2 1 -0.106000 47.727001 48.709000 143.488998
194 2 1 -0.106000 47.862000 47.320999 142.848007
195 2 1 -0.106000 46.702999 46.960999 141.901993
196 2 1 -0.106000 46.832001 45.504002 141.444000
197 2 1 -0.106000 45.657001 45.063000 140.556000
198 2 1 -0.106000 45.747002 43.554001 140.302002
199 2 1 -0.106000 44.529999 42.993000 139.541000
200 2 1 -0.106000 44.558998 41.458000 139.613007
201 2 1 0.301100 43.279999 40.785000 139.052002
202 2 2 -0.628400 43.116001 39.330002 139.412003
203 2 3 0.248100 44.220001 38.540001 138.809006
204 2 3 0.248100 41.845001 38.837002 138.826004
205 2 1 0.301100 43.120998 39.088001 140.897003
206 2 1 -0.106000 41.951000 39.754002 141.679001
207 2 1 -0.106000 42.272999 40.078999 143.153000
208 2 1 -0.106000 43.285000 41.242001 143.235992
209 2 1 -0.106000 43.444000 41.844002 144.636002
210 2 1 -0.106000 44.341000 43.090000 144.542007
211 2 1 -0.106000 44.473000 43.828999 145.876999
212 2 1 -0.106000 45.275002 45.124001 145.681000
213 2 1 -0.106000 45.382000 45.926998 146.981995
214 2 1 -0.106000 46.120998 47.250000 146.738998
215 2 1 -0.106000 46.220001 48.078999 148.022995
216 2 3 -0.159000 46.933998 49.403000 147.766006
217 2 4 0.053000 47.688999 53.334999 142.787003
218 2 4 0.053000 46.897999 52.321999 141.518997
219 2 4 0.053000 48.703999 52.358002 141.658005
220 2 4 0.053000 46.748001 51.268002 143.783005
221 2 4 0.053000 48.547001 51.304001 143.923004
222 2 4 0.053000 48.737000 49.810001 141.914001
223 2 4 0.053000 46.932999 49.786999 141.770996
224 2 4 0.053000 46.773998 48.757000 144.061005
225 2 4 0.053000 48.567001 48.828999 144.210007
226 2 4 0.053000 47.875999 46.584000 143.682007
227 2 4 0.053000 48.831001 47.245998 142.306000
228 2 4 0.053000 46.696999 47.630001 141.016998
229 2 4 0.053000 45.743999 47.076000 142.451996
230 2 4 0.053000 46.842999 44.867001 142.358002
231 2 4 0.053000 47.789001 45.355000 140.897003
232 2 4 0.053000 45.653999 45.627998 139.598999
233 2 4 0.053000 44.708000 45.269001 141.098999
234 2 4 0.053000 45.778999 43.070999 141.304993
235 2 4 0.053000 46.682999 43.298000 139.759995
236 2 4 0.053000 44.509998 43.356998 138.492004
237 2 4 0.053000 43.608002 43.338001 140.057999
238 2 4 0.053000 44.632999 41.252998 140.686005
239 2 4 0.053000 45.469002 41.062000 139.115005
240 2 4 0.053000 43.278000 40.921001 137.945999
241 2 4 0.053000 42.404999 41.361000 139.408005
242 2 4 0.053000 44.094002 39.386002 141.315994
243 2 4 0.053000 43.091999 37.999001 141.132996
244 2 4 0.053000 41.063999 39.088001 141.606003
245 2 4 0.053000 41.643002 40.717999 141.238998
246 2 4 0.053000 42.624001 39.183998 143.710007
247 2 4 0.053000 41.323002 40.428001 143.613998
248 2 4 0.053000 42.911999 42.058998 142.576004
249 2 4 0.053000 44.282001 40.921001 142.880005
250 2 4 0.053000 43.877998 41.095001 145.334000
251 2 4 0.053000 42.444000 42.152000 145.011002
252 2 4 0.053000 43.886002 43.792000 143.807999
253 2 4 0.053000 45.351002 42.803001 144.171997
254 2 4 0.053000 44.971001 43.174000 146.623993
255 2 4 0.053000 43.458000 44.090000 146.248001
256 2 4 0.053000 44.761002 45.750999 144.919006
257 2 4 0.053000 46.294998 44.881001 145.309998
258 2 4 0.053000 45.922001 45.327000 147.746002
259 2 4 0.053000 44.359001 46.151001 147.358002
260 2 4 0.053000 45.564999 47.835999 145.973999
261 2 4 0.053000 47.144001 47.037998 146.356003
262 2 4 0.053000 46.782001 47.507999 148.794006
263 2 4 0.053000 45.200001 48.292000 148.410004
264 2 4 0.053000 47.966000 49.221001 147.395004
265 2 4 0.053000 46.992001 49.985001 148.709000
266 2 4 0.053000 46.377998 50.000999 147.011993
267 2 4 0.053000 41.849998 38.935001 137.716995
268 2 4 0.053000 40.972000 39.417000 139.197006
269 2 4 0.053000 41.674000 37.765999 139.074997
270 2 4 0.053000 44.275002 38.700001 137.709000
271 2 4 0.053000 44.077999 37.450001 138.987000
272 2 4 0.053000 45.203999 38.810001 139.246994
273 2 5 -1.000000 43.747002 38.699001 137.621994
274 1 1 -0.106000 38.050999 37.261002 478.838989
275 1 1 -0.106000 39.394001 37.403999 478.118988
276 1 1 -0.106000 39.581001 38.830002 477.595001
277 1 1 -0.106000 40.912998 38.964001 476.851990
278 1 1 -0.106000 41.089001 40.381001 476.303009
279 1 1 -0.106000 42.415001 40.512001 475.552002
280 1 1 -0.106000 42.584999 41.925999 474.994995
281 1 1 -0.106000 43.917999 42.064999 474.256012
282 1 1 -0.106000 44.089001 43.487999 473.716003
283 1 1 -0.106000 45.433998 43.646000 473.002991
284 1 1 -0.106000 45.608002 45.080002 472.489990
285 1 1 0.301100 46.980000 45.250999 471.800995
286 1 2 -0.628400 47.264999 46.620998 471.272003
287 1 3 0.248100 47.257000 47.632999 472.355011
288 1 3 0.248100 46.291000 47.009998 470.223999
289 1 3 0.248100 48.618000 46.601002 470.665009
290 1 1 -0.106000 37.847000 35.826000 479.334015
291 1 1 -0.106000 36.493000 35.678001 480.032990
292 1 1 -0.106000 36.278999 34.237999 480.510986
293 1 3 -0.159000 34.924999 34.084999 481.199005
294 1 4 0.053000 34.794998 33.034000 481.532990
295 1 4 0.053000 34.105000 34.340000 480.494995
296 1 4 0.053000 34.867001 34.750999 482.085999
297 1 4 0.053000 37.081001 33.958000 481.227997
298 1 4 0.053000 36.319000 33.546001 479.641998
299 1 4 0.053000 35.681999 35.950001 479.321991
300 1 4 0.053000 36.451000 36.367001 480.904999
301 1 4 0.053000 38.662998 35.560001 480.042999
302 1 4 0.053000 37.887001 35.131001 478.464996
303 1 4 0.053000 37.230000 37.521999 478.134003
304 1 4 0.053000 38.018002 37.960999 479.703003
305 1 4 0.053000 39.424000 36.695000 477.260986
306 1 4 0.053000 40.221001 37.153999 478.820007
307 1 4 0.053000 39.557999 39.544998 478.446991
308 1 4 0.053000 38.749001 39.075001 476.898010
309 1 4 0.053000 40.936001 38.241001 476.006989
310 1 4 0.053000 41.749001 38.729000 477.548004
311 1 4 0.053000 41.067001 41.109001 477.144989
312 1 4 0.053000 40.250000 40.612999 475.609985
313 1 4 0.053000 42.437000 39.782001 474.710999
314 1 4 0.053000 43.254002 40.285000 476.246002
315 1 4 0.053000 42.556000 42.654999 475.834991
316 1 4 0.053000 41.750000 42.152000 474.295990
317 1 4 0.053000 43.952999 41.341999 473.411987
318 1 4 0.053000 44.750000 41.838001 474.958008
319 1 4 0.053000 44.039001 44.205002 474.563995
320 1 4 0.053000 43.263000 43.715000 473.005005
321 1 4 0.053000 45.490002 42.935001 472.148987
322 1 4 0.053000 46.254002 43.410999 473.717987
323 1 4 0.053000 45.528999 45.764000 473.359985
324 1 4 0.053000 44.784000 45.294998 471.778992
325 1 4 0.053000 47.035000 44.511002 470.967987
326 1 4 0.053000 47.764999 44.970001 472.540009
327 1 4 0.053000 49.391998 46.327000 471.416992
328 1 4 0.053000 48.889999 47.598000 470.250000
329 1 4 0.053000 48.674999 45.862999 469.832001
330 1 4 0.053000 45.266998 47.127998 470.638000
331 1 4 0.053000 46.256001 46.252998 469.410004
332 1 4 0.053000 46.562000 47.990002 469.770996
333 1 4 0.053000 46.243000 47.766998 472.786987
334 1 4 0.053000 47.567001 48.631001 471.971985
335 1 4 0.053000 47.955002 47.348000 473.174011
336 1 5 -1.000000 46.157001 48.228001 471.704987
337 1 1 -0.106000 8.443000 44.428001 523.078003
338 1 1 -0.106000 8.645000 45.945999 523.057983
339 1 1 -0.106000 10.114000 46.294998 522.804993
340 1 1 -0.106000 10.311000 47.811001 522.755005
341 1 1 -0.106000 11.778000 48.159000 522.492981
342 1 1 -0.106000 11.973000 49.674999 522.434021
343 1 1 -0.106000 13.441000 50.028000 522.187012
344 1 1 -0.106000 13.631000 51.546001 522.145996
345 1 1 -0.106000 15.103000 51.909000 521.932007
346 1 1 -0.106000 15.287000 53.431000 521.919983
347 1 1 -0.106000 16.777000 53.799000 521.739014
348 1 1 0.301100 17.077999 55.264999 521.726990
349 1 2 -0.628400 16.680000 55.910999 523.000000
350 1 3 0.248100 16.403000 55.945999 520.594971
351 1 3 0.248100 18.542000 55.425999 521.560974
352 1 3 0.248100 6.762000 42.561001 523.289978
353 1 1 -0.106000 5.285000 42.210999 523.492004
354 1 1 -0.106000 5.073000 40.694000 523.458984
355 1 1 -0.106000 3.600000 40.342999 523.648987
356 1 3 -0.159000 3.474000 39.241001 523.619019
357 1 4 0.053000 2.989000 40.794998 522.838989
358 1 4 0.053000 3.239000 40.716999 524.630981
359 1 4 0.053000 5.665000 40.215000 524.268005
360 1 4 0.053000 5.414000 40.290001 522.481018
361 1 4 0.053000 4.685000 42.681999 522.682007
362 1 4 0.053000 4.943000 42.612000 524.471985
363 1 4 0.053000 7.368000 42.098000 524.101013
364 1 4 0.053000 7.104000 42.153999 522.312012
365 1 4 0.053000 6.359000 44.535000 522.494019
366 1 4 0.053000 6.637000 44.491001 524.281006
367 1 4 0.053000 8.773000 44.006001 522.101990
368 1 4 0.053000 9.061000 43.983002 523.888977
369 1 4 0.053000 8.323000 46.376999 524.031006
370 1 4 0.053000 8.021000 46.386002 522.247009
371 1 4 0.053000 10.434000 45.855000 521.835022
372 1 4 0.053000 10.740000 45.865002 523.617981
373 1 4 0.053000 9.993000 48.257000 523.724976
374 1 4 0.053000 9.682000 48.237000 521.942993
375 1 4 0.053000 12.097000 47.710999 521.525024
376 1 4 0.053000 12.407000 47.737000 523.307983
377 1 4 0.053000 11.647000 50.123001 523.400024
378 1 4 0.053000 11.349000 50.097000 521.616028
379 1 4 0.053000 13.773000 49.587002 521.221985
380 1 4 0.053000 14.061000 49.603001 523.007019
381 1 4 0.053000 13.285000 51.980000 523.109985
382 1 4 0.053000 13.020000 51.973000 521.320007
383 1 4 0.053000 15.456000 51.483002 520.966980
384 1 4 0.053000 15.709000 51.473999 522.757996
385 1 4 0.053000 14.910000 53.826000 522.885010
386 1 4 0.053000 14.678000 53.846001 521.091003
387 1 4 0.053000 17.125000 53.339001 520.784973
388 1 4 0.053000 17.346001 53.312000 522.564026
389 1 4 0.053000 19.097000 54.942001 522.396973
390 1 4 0.053000 18.832001 56.500999 521.544006
391 1 4 0.053000 18.893000 54.967999 520.607971
392 1 4 0.053000 15.298000 55.935001 520.706970
393 1 4 0.053000 16.663000 55.463001 519.625977
394 1 4 0.053000 16.704000 57.015999 520.538025
395 1 4 0.053000 15.579000 55.910000 523.137024
396 1 4 0.053000 16.997000 56.978001 523.023010
397 1 4 0.053000 17.143999 55.396000 523.870972
398 1 4 0.053000 15.757000 56.671001 522.254028
399 1 5 -1.000000 32.789001 19.368000 178.804001
400 1 1 -0.106000 33.625000 17.663000 180.460007
401 1 1 -0.106000 33.824001 17.341000 181.944000
402 1 1 -0.106000 34.408001 15.938000 182.121002
403 1 1 -0.106000 34.598999 15.613000 183.604004
404 1 1 -0.106000 35.173000 14.206000 183.781006
405 1 1 -0.106000 35.379002 13.883000 185.261993
406 1 1 -0.106000 35.970001 12.481000 185.431000
407 1 1 -0.106000 36.209999 12.161000 186.908997
408 1 1 -0.106000 36.827000 10.766000 187.065002
409 1 1 -0.106000 37.103001 10.455000 188.552994
410 1 1 -0.106000 37.721001 9.120000 188.824997
411 1 1 0.301100 39.039001 8.987000 188.160004
412 1 2 -0.628400 36.833000 8.015000 188.389999
413 1 3 0.248100 37.924999 9.004000 190.289001
414 1 3 0.248100 32.146000 20.747999 178.628998
415 1 3 0.248100 31.899000 21.049999 177.147995
416 1 1 -0.106000 31.238001 22.421000 176.973999
417 1 1 -0.106000 30.980000 22.721001 175.498993
418 1 1 -0.106000 30.499001 23.716999 175.401001
419 1 3 -0.159000 30.305000 21.954000 175.063995
420 1 4 0.053000 31.937000 22.729000 174.934998
421 1 4 0.053000 31.896999 23.212000 177.391998
422 1 4 0.053000 30.268000 22.441000 177.518005
423 1 4 0.053000 31.233000 20.267000 176.722000
424 1 4 0.053000 32.868000 21.034000 176.602997
425 1 4 0.053000 32.816002 21.525000 179.059998
426 1 4 0.053000 31.174999 20.770000 179.173004
427 1 4 0.053000 32.116001 18.597000 178.367004
428 1 4 0.053000 33.762001 19.341000 178.266998
429 1 4 0.053000 32.037998 19.093000 180.817993
430 1 4 0.053000 33.693001 19.818001 180.727005
431 1 4 0.053000 34.605000 17.618000 179.936005
432 1 4 0.053000 32.943001 16.906000 180.011993
433 1 4 0.053000 32.845001 17.396000 182.466003
434 1 4 0.053000 34.514000 18.090000 182.393997
435 1 4 0.053000 35.389999 15.878000 181.600006
436 1 4 0.053000 33.717999 15.193000 181.667999
437 1 4 0.053000 33.617001 15.676000 184.125000
438 1 4 0.053000 35.292999 16.355000 184.056000
439 1 4 0.053000 36.151001 14.143000 183.253998
440 1 4 0.053000 34.477001 13.463000 183.334000
441 1 4 0.053000 34.404999 13.942000 185.796005
442 1 4 0.053000 36.075001 14.630000 185.705002
443 1 4 0.053000 36.937000 12.427000 184.884003
444 1 4 0.053000 35.271000 11.731000 184.998001
445 1 4 0.053000 35.247002 12.207000 187.462006
446 1 4 0.053000 36.904999 12.918000 187.335999
447 1 4 0.053000 37.773998 10.747000 186.488007
448 1 4 0.053000 36.120998 10.026000 186.634995
449 1 4 0.053000 36.134998 10.537000 189.100998
450 1 4 0.053000 37.769001 11.258000 188.945999
451 1 4 0.053000 38.598999 9.806000 190.664993
452 1 4 0.053000 38.384998 8.026000 190.557007
453 1 4 0.053000 36.959000 9.084000 190.837997
454 1 4 0.053000 36.710999 7.995000 187.285995
455 1 4 0.053000 35.825001 8.105000 188.854004
456 1 4 0.053000 37.257000 7.027000 188.677002
457 1 4 0.053000 38.943001 8.967000 187.054001
458 1 4 0.053000 39.536999 8.033000 188.445999
459 1 4 0.053000 39.715000 9.825000 188.440994
460 1 4 0.053000 38.479000 7.940000 187.399994
461 1 4 0.053000 38.688999 14.416000 67.540001
462 1 5 -1.000000 37.243000 14.848000 67.288002
463 1 1 -0.106000 35.304001 14.768000 65.680000
464 1 1 -0.106000 34.812000 14.257000 64.323997
465 1 1 -0.106000 33.379002 14.720000 64.056999
466 1 1 -0.106000 32.891998 14.218000 62.696999
467 1 1 -0.106000 31.452999 14.667000 62.432999
468 1 1 -0.106000 30.966000 14.146000 61.077999
469 1 1 -0.106000 29.516001 14.562000 60.819000
470 1 1 -0.106000 29.028999 14.014000 59.473000
471 1 1 -0.106000 27.555000 14.403000 59.224998
472 1 1 -0.106000 26.966999 13.907000 57.942001
473 1 1 -0.106000 26.983999 12.425000 57.875000
474 1 1 0.301100 27.683001 14.463000 56.769001
475 1 2 -0.628400 25.556000 14.358000 57.883999
476 1 3 0.248100 39.202999 14.979000 68.869003
477 1 3 0.248100 40.658001 14.567000 69.109001
478 1 3 0.248100 41.179001 15.146000 70.428001
479 1 1 -0.106000 42.632000 14.746000 70.666000
480 1 1 -0.106000 42.985001 15.180000 71.625000
481 1 1 -0.106000 43.275002 15.127000 69.844002
482 1 3 -0.159000 42.723000 13.640000 70.720001
483 1 4 0.053000 40.558998 14.773000 71.273003
484 1 4 0.053000 41.112999 16.256001 70.401001
485 1 4 0.053000 41.286999 14.942000 68.272003
486 1 4 0.053000 40.726002 13.457000 69.139999
487 1 4 0.053000 38.567001 14.601000 69.699997
488 1 4 0.053000 39.137001 16.090000 68.843002
489 1 4 0.053000 39.332001 14.793000 66.712997
490 1 4 0.053000 38.745998 13.305000 67.559998
491 1 4 0.053000 37.191002 15.959000 67.277000
492 1 4 0.053000 36.591999 14.466000 68.105003
493 1 4 0.053000 36.785000 13.200000 65.946999
494 1 4 0.053000 37.398998 14.694000 65.130997
495 1 4 0.053000 35.264000 15.878000 65.686996
496 1 4 0.053000 34.640999 14.379000 66.486000
497 1 4 0.053000 34.849998 13.144000 64.313004
498 1 4 0.053000 35.479000 14.645000 63.521999
499 1 4 0.053000 33.341000 15.833000 64.071999
500 1 4 0.053000 32.712002 14.328000 64.856003
501 1 4 0.053000 32.936001 13.106000 62.681000
502 1 4 0.053000 33.555000 14.614000 61.896999
503 1 4 0.053000 31.400999 15.777000 62.444000
504 1 4 0.053000 30.794001 14.269000 63.236000
505 1 4 0.053000 31.034000 13.036000 61.070999
506 1 4 0.053000 31.618000 14.550000 60.271999
507 1 4 0.053000 29.440001 15.672000 60.819000
508 1 4 0.053000 28.872000 14.160000 61.632000
509 1 4 0.053000 29.135000 12.909000 59.498001
510 1 4 0.053000 29.681000 14.425000 58.675999
511 1 4 0.053000 27.488001 15.516000 59.259998
512 1 4 0.053000 26.955999 14.013000 60.081001
513 1 4 0.053000 24.969000 13.954000 58.738998
514 1 4 0.053000 25.061001 14.019000 56.946999
515 1 4 0.053000 25.488001 15.470000 57.917000
516 1 4 0.053000 28.726999 14.089000 56.708000
517 1 4 0.053000 27.709999 15.575000 56.806999
518 1 4 0.053000 27.184999 14.163000 55.819000
519 1 4 0.053000 28.018000 12.027000 57.816002
520 1 4 0.053000 26.457001 12.061000 56.965000
521 1 4 0.053000 26.483999 11.980000 58.764000
522 1 4 0.053000 27.851999 12.548000 56.771999
523 1 4 0.053000 39.042999 11.740000 535.956970
524 1 4 0.053000 38.761002 10.753000 534.822021
525 1 5 -1.000000 38.914001 11.434000 533.458984
526 1 1 -0.106000 38.728001 11.139000 530.963989
527 1 1 -0.106000 38.410999 10.161000 529.830994
528 1 1 -0.106000 38.525002 10.851000 528.471008
529 1 1 -0.106000 38.223000 9.872000 527.335022
530 1 1 -0.106000 38.355999 10.565000 525.976013
531 1 1 -0.106000 38.088001 9.584000 524.831970
532 1 1 -0.106000 38.249001 10.280000 523.476013
533 1 1 -0.106000 38.013000 9.285000 522.317993
534 1 1 -0.106000 38.160000 9.853000 520.942993
535 1 1 -0.106000 39.528000 10.379000 520.716003
536 1 1 -0.106000 37.168999 10.928000 520.692993
537 1 1 0.301100 37.916000 8.761000 519.971008
538 1 2 -0.628400 38.858002 11.069000 537.322021
539 1 3 0.248100 39.116001 12.063000 538.458008
540 1 3 0.248100 38.911999 11.398000 539.822998
541 1 3 0.248100 39.158001 12.389000 540.956970
542 1 1 -0.106000 39.000999 11.883000 541.932983
543 1 1 -0.106000 38.452000 13.244000 540.880005
544 1 1 -0.106000 40.200001 12.770000 540.916016
545 1 3 -0.159000 39.613998 10.543000 539.932007
546 1 4 0.053000 37.869999 11.016000 539.901001
547 1 4 0.053000 38.412998 12.919000 538.359985
548 1 4 0.053000 40.158001 12.444000 538.383972
549 1 4 0.053000 39.562000 10.211000 537.409973
550 1 4 0.053000 37.816002 10.685000 537.401978
551 1 4 0.053000 38.339001 12.598000 535.877014
552 1 4 0.053000 40.084000 12.120000 535.867981
553 1 4 0.053000 37.721001 10.369000 534.921997
554 1 4 0.053000 39.466999 9.896000 534.890015
555 1 4 0.053000 39.952000 11.815000 533.348022
556 1 4 0.053000 38.207001 12.292000 533.400024
557 1 4 0.053000 37.569000 10.067000 532.445007
558 1 4 0.053000 39.314999 9.596000 532.375000
559 1 4 0.053000 39.764999 11.527000 530.838013
560 1 4 0.053000 38.020000 11.995000 530.919006
561 1 4 0.053000 37.375999 9.771000 529.958984
562 1 4 0.053000 39.123001 9.307000 529.872986
563 1 4 0.053000 39.558998 11.246000 528.348022
564 1 4 0.053000 37.810001 11.701000 528.426025
565 1 4 0.053000 37.191002 9.475000 527.448975
566 1 4 0.053000 38.941002 9.023000 527.385010
567 1 4 0.053000 39.387001 10.969000 525.875000
568 1 4 0.053000 37.632000 11.408000 525.919983
569 1 4 0.053000 37.056000 9.179000 524.921997
570 1 4 0.053000 38.811001 8.741000 524.898010
571 1 4 0.053000 39.279999 10.689000 523.424988
572 1 4 0.053000 37.521999 11.116000 523.427002
573 1 4 0.053000 36.987999 8.862000 522.440002
574 1 4 0.053000 38.731998 8.442000 522.448975
575 1 4 0.053000 38.646000 7.931000 520.106995
576 1 4 0.053000 38.011002 9.123000 518.921997
577 1 4 0.053000 36.891998 8.338000 520.088989
578 1 4 0.053000 37.355000 11.816000 521.333984
579 1 4 0.053000 36.133999 10.569000 520.882996
580 1 4 0.053000 37.223999 11.284000 519.640015
581 1 4 0.053000 39.738998 11.267000 521.348999
582 1 4 0.053000 39.660000 10.709000 519.661987
583 1 4 0.053000 40.294998 9.602000 520.932007
584 1 4 0.053000 38.945000 11.654000 520.567017
585 1 4 0.053000 21.927999 9.783000 236.031998
586 1 4 0.053000 21.250999 10.859000 235.179993
587 1 4 0.053000 22.059999 12.158000 235.201996
588 1 5 -1.000000 21.367001 13.242000 234.371002
589 1 1 -0.106000 21.462999 15.636000 233.593994
590 1 1 -0.106000 22.250999 16.945999 233.647003
591 1 1 -0.106000 21.563999 18.030001 232.813995
592 1 1 -0.106000 22.367001 19.332001 232.858002
593 1 1 -0.106000 21.705000 20.414000 232.000000
594 1 1 -0.106000 22.530001 21.705999 232.029007
595 1 1 -0.106000 21.882999 22.787001 231.134995
596 1 1 -0.106000 22.614000 24.091000 231.076004
597 1 1 -0.106000 23.983999 23.921000 230.533005
598 1 1 -0.106000 22.688000 24.731001 232.412003
599 1 1 -0.106000 21.863001 24.992001 230.169006
600 1 1 0.301100 21.101999 8.492000 236.039001
601 1 2 -0.628400 21.767000 7.424000 236.910004
602 1 3 0.248100 20.931999 6.140000 236.934006
603 1 3 0.248100 21.587000 5.076000 237.811005
604 1 3 0.248100 20.961000 4.159000 237.811996
605 1 1 -0.106000 21.683001 5.444000 238.854004
606 1 1 -0.106000 22.594000 4.821000 237.417999
607 1 1 -0.106000 20.827999 5.741000 235.901001
608 1 3 -0.159000 19.919001 6.360000 237.335007
609 1 4 0.053000 21.870001 7.811000 237.947998
610 1 4 0.053000 22.780001 7.199000 236.509003
611 1 4 0.053000 21.000999 8.113000 234.996994
612 1 4 0.053000 20.087000 8.711000 236.440002
613 1 4 0.053000 22.028000 10.154000 237.076004
614 1 4 0.053000 22.941999 9.573000 235.626999
615 1 4 0.053000 20.233000 11.058000 235.585007
616 1 4 0.053000 21.155001 10.498000 234.132004
617 1 4 0.053000 23.077000 11.970000 234.792999
618 1 4 0.053000 22.155001 12.511000 236.253006
619 1 4 0.053000 20.348000 13.421000 234.778000