LAMMPS data file containing the original structures and the polarizable gold

19782 atoms
15917 bonds
24504 angles
34956 dihedrals
0 impropers

7 atom types
7 bond types
13 angle types
15 dihedral types

-48.521935 106.657066 xlo xhi
-3.000000 64.743340 ylo yhi
-3.000000 96.678406 zlo zhi

Masses

1 12.011150
2 14.006700
3 12.011150
4 1.007970
5 79.908997
6 195.960007
7 1.000000

Atoms

1 1 1 -0.106000 48.722000 39.737999 473.516998
2 1 1 -0.106000 47.999001 40.896000 474.208008
3 1 1 -0.106000 46.518002 40.566002 474.415009
4 1 1 -0.106000 45.791000 41.737000 475.082001
5 1 1 -0.106000 44.304001 41.419998 475.263000
6 1 1 -0.106000 43.576000 42.592999 475.920990
7 1 1 -0.106000 42.088001 42.278999 476.092987
8 1 1 -0.106000 41.359001 43.444000 476.764008
9 1 1 -0.106000 39.875000 43.117001 476.947998
10 1 1 -0.106000 39.141998 44.264000 477.648987
11 1 1 -0.106000 37.662998 43.915001 477.852997
12 1 1 0.301100 36.930000 45.056999 478.592010
13 1 2 -0.628400 35.477001 44.818001 478.859009
14 1 3 0.248100 35.271999 43.622002 479.712006
15 1 3 0.248100 34.714001 44.664001 477.596985
16 1 3 0.248100 34.949001 46.000000 479.582001
17 1 1 -0.106000 50.196999 40.080002 473.278015
18 1 1 -0.106000 50.914001 38.931000 472.565002
19 1 1 -0.106000 52.383999 39.279999 472.308990
20 1 3 -0.159000 53.099998 38.139999 471.588013
21 1 4 0.053000 54.159000 38.419998 471.412994
22 1 4 0.053000 52.616001 37.941002 470.608002
23 1 4 0.053000 53.070999 37.216999 472.204987
24 1 4 0.053000 52.896999 39.473999 473.274994
25 1 4 0.053000 52.446999 40.195000 471.681000
26 1 4 0.053000 50.410999 38.733002 471.592987
27 1 4 0.053000 50.855000 38.014000 473.192993
28 1 4 0.053000 50.692001 40.278999 474.255005
29 1 4 0.053000 50.261002 40.997002 472.651001
30 1 4 0.053000 48.234001 39.535999 472.537994
31 1 4 0.053000 48.650002 38.826000 474.148987
32 1 4 0.053000 48.083000 41.807999 473.575012
33 1 4 0.053000 48.476002 41.098000 475.192993
34 1 4 0.053000 46.424999 39.659000 475.052002
35 1 4 0.053000 46.049000 40.362000 473.427002
36 1 4 0.053000 45.894001 42.643002 474.446991
37 1 4 0.053000 46.250999 41.938999 476.075989
38 1 4 0.053000 44.195000 40.513000 475.899994
39 1 4 0.053000 43.848999 41.216000 474.269012
40 1 4 0.053000 43.688000 43.500999 475.286011
41 1 4 0.053000 44.028000 42.793999 476.916992
42 1 4 0.053000 41.978001 41.368000 476.721985
43 1 4 0.053000 41.633999 42.084000 475.096985
44 1 4 0.053000 41.462002 44.359001 476.140015
45 1 4 0.053000 41.817001 43.637001 477.759003
46 1 4 0.053000 39.780998 42.195000 477.562988
47 1 4 0.053000 39.410999 42.933998 475.953003
48 1 4 0.053000 39.226002 45.188999 477.037994
49 1 4 0.053000 39.615002 44.445000 478.640015
50 1 4 0.053000 37.613998 42.980000 478.449005
51 1 4 0.053000 37.209000 43.738998 476.856995
52 1 4 0.053000 37.049999 45.985001 477.984985
53 1 4 0.053000 37.459999 45.227001 479.557007
54 1 4 0.053000 35.480999 46.152000 480.546997
55 1 4 0.053000 33.865002 45.882999 479.809998
56 1 4 0.053000 35.066002 46.928001 478.976013
57 1 4 0.053000 35.005001 43.742001 477.049988
58 1 4 0.053000 34.872002 45.535999 476.924988
59 1 4 0.053000 33.623001 44.577999 477.799988
60 1 4 0.053000 35.558998 42.688000 479.187012
61 1 4 0.053000 34.200001 43.507999 479.988007
62 1 4 0.053000 35.863998 43.695999 480.651001
63 1 5 -1.000000 34.584999 43.043999 478.625000
64 1 1 -0.106000 32.291000 16.546000 178.807999
65 1 1 -0.106000 32.280998 15.850000 180.171997
66 1 1 -0.106000 33.667000 15.908000 180.820007
67 1 1 -0.106000 33.651001 15.239000 182.195999
68 1 1 -0.106000 35.034000 15.304000 182.847000
69 1 1 -0.106000 35.014999 14.644000 184.225998
70 1 1 -0.106000 36.400002 14.694000 184.875000
71 1 1 -0.106000 36.376999 14.017000 186.246994
72 1 1 -0.106000 37.766998 14.033000 186.889999
73 1 1 -0.106000 37.740002 13.328000 188.251007
74 1 1 -0.106000 39.147999 13.313000 188.886993
75 1 1 0.301100 39.243999 12.635000 190.216003
76 1 2 -0.628400 38.854000 11.207000 190.126999
77 1 3 0.248100 38.403999 13.315000 191.231995
78 1 3 0.248100 40.657001 12.703000 190.660004
79 1 3 0.248100 30.900000 17.239000 176.820999
80 1 1 -0.106000 29.503000 17.226999 176.195007
81 1 1 -0.106000 29.497999 17.969000 174.854996
82 1 1 -0.106000 28.104000 17.968000 174.233002
83 1 3 -0.159000 28.128000 18.513000 173.266998
84 1 4 0.053000 27.382000 18.472000 174.910004
85 1 4 0.053000 27.766001 16.926001 174.048004
86 1 4 0.053000 30.207001 17.479000 174.151993
87 1 4 0.053000 29.820000 19.021999 175.009995
88 1 4 0.053000 28.787001 17.721001 176.889008
89 1 4 0.053000 29.180000 16.174000 176.037003
90 1 4 0.053000 31.620001 16.740000 176.134003
91 1 4 0.053000 31.223000 18.292999 176.973999
92 1 4 0.053000 30.174999 17.014000 178.850998
93 1 4 0.053000 30.583000 15.457000 178.024994
94 1 4 0.053000 32.605000 17.605000 178.942993
95 1 4 0.053000 33.019001 16.039000 178.138000
96 1 4 0.053000 31.973000 14.789000 180.046005
97 1 4 0.053000 31.547001 16.360001 180.835999
98 1 4 0.053000 33.973999 16.969999 180.936005
99 1 4 0.053000 34.402000 15.391000 180.164001
100 1 4 0.053000 33.345001 14.174000 182.085007
101 1 4 0.053000 32.912998 15.756000 182.847000
102 1 4 0.053000 35.341000 16.368999 182.955002
103 1 4 0.053000 35.771000 14.783000 182.197006
104 1 4 0.053000 34.701000 13.582000 184.117996
105 1 4 0.053000 34.282001 15.169000 184.878006
106 1 4 0.053000 36.719002 15.753000 184.990005
107 1 4 0.053000 37.129002 14.169000 184.218994
108 1 4 0.053000 36.044998 12.963000 186.125000
109 1 4 0.053000 35.655998 14.546000 186.908997
110 1 4 0.053000 38.105000 15.084000 187.020996
111 1 4 0.053000 38.483002 13.507000 186.220001
112 1 4 0.053000 37.381001 12.291000 188.089005
113 1 4 0.053000 37.021999 13.866000 188.904999
114 1 4 0.053000 39.487999 14.371000 188.981995
115 1 4 0.053000 39.835999 12.813000 188.166000
116 1 4 0.053000 41.331001 12.192000 189.934998
117 1 4 0.053000 40.794998 12.213000 191.649994
118 1 4 0.053000 40.998001 13.759000 190.757004
119 1 4 0.053000 37.321999 13.222000 191.000000
120 1 4 0.053000 38.658001 14.396000 191.300995
121 1 4 0.053000 38.550999 12.862000 192.238007
122 1 4 0.053000 37.775002 11.088000 189.893005
123 1 4 0.053000 39.021999 10.685000 191.095001
124 1 4 0.053000 39.445000 10.680000 189.345001
125 1 4 0.053000 37.785000 11.510000 190.994003
126 1 5 -1.000000 17.663000 19.875999 232.348999
127 1 1 -0.106000 19.355000 18.032000 232.643005
128 1 1 -0.106000 20.827000 17.638000 232.490005
129 1 1 -0.106000 21.061001 16.209999 232.988007
130 1 1 -0.106000 22.533001 15.820000 232.843002
131 1 1 -0.106000 22.768000 14.396000 233.350998
132 1 1 -0.106000 24.237000 13.996000 233.194000
133 1 1 -0.106000 24.462000 12.565000 233.688004
134 1 1 -0.106000 25.922001 12.144000 233.503998
135 1 1 -0.106000 26.131001 10.701000 233.975998
136 1 1 -0.106000 27.596001 10.262000 233.759995
137 1 1 -0.106000 27.914000 8.859000 234.173004
138 1 1 0.301100 27.107000 7.874000 233.412994
139 1 2 -0.628400 27.695000 8.661000 235.626999
140 1 3 0.248100 29.346001 8.613000 233.880005
141 1 3 0.248100 17.440001 21.326000 231.908997
142 1 3 0.248100 15.979000 21.739000 232.108994
143 1 1 -0.106000 15.760000 23.195000 231.688004
144 1 1 -0.106000 14.307000 23.613001 231.897003
145 1 1 -0.106000 14.176000 24.671000 231.587006
146 1 3 -0.159000 14.030000 23.518000 232.968002
147 1 4 0.053000 13.632000 22.976000 231.287003
148 1 4 0.053000 16.020000 23.319000 230.615005
149 1 4 0.053000 16.414000 23.862000 232.292007
150 1 4 0.053000 15.711000 21.625000 233.182999
151 1 4 0.053000 15.323000 21.076000 231.503998
152 1 4 0.053000 17.712999 21.431999 230.835007
153 1 4 0.053000 18.094999 21.995001 232.511993
154 1 4 0.053000 17.384001 19.775999 233.421997
155 1 4 0.053000 17.016001 19.201000 231.746002
156 1 4 0.053000 19.770000 20.155001 232.770004
157 1 4 0.053000 19.410999 19.559000 231.098999
158 1 4 0.053000 18.721001 17.340000 232.046005
159 1 4 0.053000 19.066000 17.950001 233.714996
160 1 4 0.053000 21.457001 18.337000 233.080994
161 1 4 0.053000 21.118000 17.709000 231.417999
162 1 4 0.053000 20.431999 15.506000 232.397995
163 1 4 0.053000 20.766001 16.142000 234.057999
164 1 4 0.053000 23.162001 16.527000 233.429993
165 1 4 0.053000 22.827000 15.883000 231.772003
166 1 4 0.053000 22.134001 13.692000 232.768005
167 1 4 0.053000 22.481001 14.333000 234.423004
168 1 4 0.053000 24.878000 14.694000 233.776001
169 1 4 0.053000 24.520000 14.062000 232.119995
170 1 4 0.053000 23.808001 11.875000 233.108994
171 1 4 0.053000 24.188999 12.499000 234.764999
172 1 4 0.053000 26.582001 12.825000 234.085007
173 1 4 0.053000 26.188999 12.219000 232.427002
174 1 4 0.053000 25.447001 10.050000 233.393005
175 1 4 0.053000 25.861000 10.646000 235.050995
176 1 4 0.053000 28.247999 10.973000 234.320999
177 1 4 0.053000 27.829000 10.390000 232.677994
178 1 4 0.053000 29.561001 8.735000 232.794998
179 1 4 0.053000 29.646000 7.580000 234.167999
180 1 4 0.053000 29.999001 9.320000 234.440002
181 1 4 0.053000 26.621000 8.747000 235.897003
182 1 4 0.053000 28.268000 9.406000 236.222000
183 1 4 0.053000 28.018000 7.645000 235.942993
184 1 4 0.053000 26.028000 7.943000 233.664001
185 1 4 0.053000 27.417999 6.833000 233.653000
186 1 4 0.053000 27.225000 8.024000 232.315994
187 1 4 0.053000 26.521999 7.501000 234.639999
188 1 4 0.053000 25.525999 34.305000 394.539001
189 1 5 -1.000000 24.246000 34.664001 395.299011
190 1 1 -0.106000 22.350000 36.308998 395.507996
191 1 1 -0.106000 21.733000 37.597000 394.959015
192 1 1 -0.106000 20.475000 37.973999 395.743011
193 1 1 -0.106000 19.865000 39.266998 395.199005
194 1 1 -0.106000 18.598000 39.639999 395.971985
195 1 1 -0.106000 17.983000 40.924999 395.411987
196 1 1 -0.106000 16.695999 41.287998 396.156006
197 1 1 -0.106000 16.073999 42.561001 395.571014
198 1 1 -0.106000 14.756000 42.910000 396.298004
199 1 1 -0.106000 14.051000 44.131001 395.798004
200 1 1 -0.106000 13.671000 43.991001 394.371002
201 1 1 0.301100 14.885000 45.345001 395.971008
202 1 2 -0.628400 12.813000 44.299000 396.593994
203 1 3 0.248100 26.177999 33.050999 395.128998
204 1 3 0.248100 27.469999 32.706001 394.384003
205 1 3 0.248100 28.132999 31.462999 394.987000
206 1 1 -0.106000 29.427999 31.122999 394.252991
207 1 1 -0.106000 29.888000 30.223000 394.709991
208 1 1 -0.106000 30.145000 31.968000 394.328003
209 1 3 -0.159000 29.219999 30.914000 393.182007
210 1 4 0.053000 27.440001 30.597000 394.915985
211 1 4 0.053000 28.365999 31.646000 396.058014
212 1 4 0.053000 28.173000 33.566002 394.455994
213 1 4 0.053000 27.239000 32.520000 393.312988
214 1 4 0.053000 25.466999 32.196999 395.057007
215 1 4 0.053000 26.410999 33.231998 396.203003
216 1 4 0.053000 26.242001 35.153999 394.610992
217 1 4 0.053000 25.283001 34.130001 393.467987
218 1 4 0.053000 24.493999 34.830002 396.371002
219 1 4 0.053000 23.521000 33.824001 395.223999
220 1 4 0.053000 23.358000 35.778000 393.658997
221 1 4 0.053000 24.346001 36.771999 394.803986
222 1 4 0.053000 22.608999 36.458000 396.579010
223 1 4 0.053000 21.611000 35.480999 395.428986
224 1 4 0.053000 21.471001 37.452999 393.885986
225 1 4 0.053000 22.476000 38.422001 395.036987
226 1 4 0.053000 20.736000 38.115002 396.816010
227 1 4 0.053000 19.731001 37.152000 395.661011
228 1 4 0.053000 19.610001 39.126999 394.125000
229 1 4 0.053000 20.606001 40.091999 395.286987
230 1 4 0.053000 18.844000 39.785000 397.045990
231 1 4 0.053000 17.860001 38.812000 395.881989
232 1 4 0.053000 17.750999 40.776001 394.334015
233 1 4 0.053000 18.716000 41.757000 395.509003
234 1 4 0.053000 16.920000 41.445000 397.234009
235 1 4 0.053000 15.971000 40.449001 396.059998
236 1 4 0.053000 15.880000 42.379002 394.493011
237 1 4 0.053000 16.809000 43.384998 395.675995
238 1 4 0.053000 14.990000 43.032001 397.381989
239 1 4 0.053000 14.079000 42.028999 396.207001
240 1 4 0.053000 12.143000 43.416000 396.487000
241 1 4 0.053000 12.240000 45.195999 396.269012
242 1 4 0.053000 13.044000 44.422001 397.677002
243 1 4 0.053000 15.790000 45.318001 395.328003
244 1 4 0.053000 15.208000 45.459999 397.028992
245 1 4 0.053000 14.321000 46.259998 395.682007
246 1 4 0.053000 14.561000 43.959999 393.708008
247 1 4 0.053000 13.062000 44.859001 394.033997
248 1 4 0.053000 13.074000 43.067001 394.205994
249 1 4 0.053000 14.536000 45.070999 394.100006
250 1 4 0.053000 50.299999 16.554001 515.693970
251 1 4 0.053000 50.536999 18.059000 515.841003
252 1 5 -1.000000 49.759998 18.839001 514.776978
253 1 1 -0.106000 49.266998 21.120001 513.828003
254 1 1 -0.106000 49.534000 22.621000 513.955017
255 1 1 -0.106000 48.789001 23.396999 512.867004
256 1 1 -0.106000 49.041000 24.900000 513.000000
257 1 1 -0.106000 48.278999 25.672001 511.919006
258 1 1 -0.106000 48.499001 27.180000 512.064026
259 1 1 -0.106000 47.710999 27.945999 510.994995
260 1 1 -0.106000 47.903000 29.469000 511.160004
261 1 1 -0.106000 47.165001 30.320000 510.175995
262 1 1 -0.106000 45.700001 30.111000 510.269989
263 1 1 -0.106000 47.613998 30.054001 508.786987
264 1 1 0.301100 47.452999 31.739000 510.493988
265 1 2 -0.628400 51.104000 15.770000 516.736023
266 1 3 0.248100 50.884998 14.264000 516.572998
267 1 3 0.248100 51.703999 13.478000 517.603027
268 1 3 0.248100 51.497002 11.975000 517.434998
269 1 1 -0.106000 52.102001 11.431000 518.190002
270 1 1 -0.106000 51.817001 11.653000 516.421997
271 1 1 -0.106000 50.426998 11.716000 517.580994
272 1 3 -0.159000 51.396999 13.772000 518.630005
273 1 4 0.053000 52.784000 13.707000 517.474976
274 1 4 0.053000 51.195999 13.958000 515.549011
275 1 4 0.053000 49.805000 14.032000 516.703979
276 1 4 0.053000 50.789001 16.084000 517.757019
277 1 4 0.053000 52.186001 15.999000 516.609985
278 1 4 0.053000 50.617001 16.233000 514.676025
279 1 4 0.053000 49.216999 16.334999 515.817993
280 1 4 0.053000 51.624001 18.270000 515.724976
281 1 4 0.053000 50.214001 18.389000 516.853027
282 1 4 0.053000 48.672001 18.639000 514.890015
283 1 4 0.053000 50.084999 18.500999 513.768005
284 1 4 0.053000 51.110001 20.537001 514.804993
285 1 4 0.053000 49.687000 20.686001 515.914001
286 1 4 0.053000 48.174999 20.929001 513.929016
287 1 4 0.053000 49.599998 20.771000 512.825989
288 1 4 0.053000 50.626999 22.812000 513.856995
289 1 4 0.053000 49.196999 22.971001 514.955017
290 1 4 0.053000 47.696999 23.201000 512.961975
291 1 4 0.053000 49.129002 23.052000 511.865997
292 1 4 0.053000 50.130001 25.106001 512.903015
293 1 4 0.053000 48.700001 25.240999 514.002014
294 1 4 0.053000 47.193001 25.452000 512.015015
295 1 4 0.053000 48.625999 25.341000 510.915009
296 1 4 0.053000 49.583000 27.410999 511.963989
297 1 4 0.053000 48.155998 27.503000 513.072021
298 1 4 0.053000 46.639000 27.681000 511.109009
299 1 4 0.053000 48.066002 27.612000 509.997986
300 1 4 0.053000 48.995998 29.681999 511.091003
301 1 4 0.053000 47.584000 29.738001 512.192993
302 1 4 0.053000 47.120998 31.995001 511.524994
303 1 4 0.053000 46.930000 32.425999 509.791992
304 1 4 0.053000 48.544998 31.952999 510.424011
305 1 4 0.053000 47.346001 29.028000 508.457001
306 1 4 0.053000 48.716000 30.176001 508.692993
307 1 4 0.053000 47.126999 30.752001 508.070007
308 1 4 0.053000 45.407001 29.090000 509.946991
309 1 4 0.053000 45.152000 30.816999 509.605988
310 1 4 0.053000 45.341000 30.268999 511.311005
311 1 4 0.053000 45.749001 29.618999 508.950012
312 1 4 0.053000 10.981000 50.317001 332.239990
313 1 4 0.053000 11.914000 51.185001 331.393005
314 1 4 0.053000 13.378000 50.806999 331.635986
315 1 5 -1.000000 14.312000 51.694000 330.808990
316 1 1 -0.106000 16.709000 52.230000 330.252991
317 1 1 -0.106000 18.173000 51.879002 330.524994
318 1 1 -0.106000 19.108999 52.759998 329.695007
319 1 1 -0.106000 20.570999 52.391998 329.959991
320 1 1 -0.106000 21.514999 53.244999 329.109009
321 1 1 -0.106000 22.974001 52.851002 329.360992
322 1 1 -0.106000 23.927000 53.687000 328.477997
323 1 1 -0.106000 25.382000 53.375999 328.630005
324 1 1 -0.106000 25.674999 51.966999 328.273987
325 1 1 -0.106000 25.851000 53.645000 330.010986
326 1 1 -0.106000 26.134001 54.255001 327.704010
327 1 1 0.301100 9.518000 50.716000 332.023010
328 1 2 -0.628400 8.586000 49.863998 332.889008
329 1 3 0.248100 7.124000 50.277000 332.687988
330 1 3 0.248100 6.193000 49.436001 333.558014
331 1 3 0.248100 5.143000 49.756001 333.394989
332 1 1 -0.106000 6.445000 49.570999 334.631012
333 1 1 -0.106000 6.285000 48.362000 333.291992
334 1 1 -0.106000 6.840000 50.141998 331.621002
335 1 3 -0.159000 6.997000 51.347000 332.958008
336 1 4 0.053000 8.859000 49.997002 333.959015
337 1 4 0.053000 8.709000 48.792999 332.618011
338 1 4 0.053000 9.254000 50.583000 330.950012
339 1 4 0.053000 9.389000 51.789001 332.292999
340 1 4 0.053000 11.237000 50.448002 333.315002
341 1 4 0.053000 11.119000 49.248001 331.967010
342 1 4 0.053000 11.765000 52.252998 331.665009
343 1 4 0.053000 11.671000 51.051998 330.316010
344 1 4 0.053000 13.538000 49.741001 331.360992
345 1 4 0.053000 13.614000 50.938000 332.716003
346 1 4 0.053000 14.143000 52.758999 331.079987
347 1 4 0.053000 14.086000 51.558998 329.726990
348 1 4 0.053000 15.951000 50.271000 330.802002
349 1 4 0.053000 15.997000 51.471001 332.154999
350 1 4 0.053000 16.532000 53.296001 330.522003
351 1 4 0.053000 16.490999 52.091999 329.170013
352 1 4 0.053000 18.347000 50.811001 330.261993
353 1 4 0.053000 18.393000 52.021999 331.605988
354 1 4 0.053000 18.943001 53.827999 329.954987
355 1 4 0.053000 18.884001 52.613998 328.614990
356 1 4 0.053000 20.725000 51.319000 329.709991
357 1 4 0.053000 20.801001 52.546001 331.037994
358 1 4 0.053000 21.371000 54.320000 329.356995
359 1 4 0.053000 21.274000 53.091000 328.033997
360 1 4 0.053000 23.080000 51.771999 329.122986
361 1 4 0.053000 23.195999 53.012001 330.436005
362 1 4 0.053000 23.747999 54.763000 328.713013
363 1 4 0.053000 23.624001 53.530998 327.415985
364 1 4 0.053000 25.827999 54.082001 326.647003
365 1 4 0.053000 27.230000 54.070999 327.769989
366 1 4 0.053000 25.959000 55.331001 327.937988
367 1 4 0.053000 25.386000 52.953999 330.746002
368 1 4 0.053000 25.618000 54.689999 330.316010
369 1 4 0.053000 26.951000 53.499001 330.093994
370 1 4 0.053000 25.218000 51.256001 328.993011
371 1 4 0.053000 26.770000 51.769001 328.292999
372 1 4 0.053000 25.301001 51.727001 327.253998
373 1 4 0.053000 26.075001 51.778000 329.612000
374 1 4 0.053000 44.249001 10.811000 251.869003
375 1 4 0.053000 42.735001 10.824000 251.643997
376 1 4 0.053000 42.284000 12.166000 251.061005
377 1 4 0.053000 40.764999 12.187000 250.862000
378 1 5 -1.000000 40.308998 13.538000 250.307999
379 1 1 -0.106000 38.334999 14.917000 249.572006
380 1 1 -0.106000 36.819000 14.940000 249.367004
381 1 1 -0.106000 36.372002 16.292000 248.804993
382 1 1 -0.106000 34.860001 16.313000 248.563995
383 1 1 -0.106000 34.425999 17.660999 247.977005
384 1 1 -0.106000 32.905998 17.672001 247.701004
385 1 1 -0.106000 32.370998 18.938000 247.110001
386 1 1 -0.106000 32.995998 19.231001 245.798004
387 1 1 -0.106000 32.575001 20.089001 248.022995
388 1 1 -0.106000 30.914000 18.761999 246.901993
389 1 1 -0.106000 44.698002 9.481000 252.483002
390 1 1 0.301100 46.209000 9.478000 252.731003
391 1 2 -0.628400 46.655998 8.156000 253.363007
392 1 3 0.248100 48.160000 8.153000 253.621002
393 1 3 0.248100 48.456001 7.188000 254.080994
394 1 3 0.248100 48.432999 8.977000 254.313995
395 1 1 -0.106000 48.714001 8.279000 252.667007
396 1 1 -0.106000 46.404999 7.312000 252.684998
397 1 1 -0.106000 46.126999 8.006000 254.330002
398 1 3 -0.159000 46.469002 10.316000 253.414001
399 1 4 0.053000 46.740002 9.624000 251.764999
400 1 4 0.053000 44.431000 8.648000 251.794998
401 1 4 0.053000 44.168999 9.330000 253.451004
402 1 4 0.053000 44.521999 11.640000 252.559006
403 1 4 0.053000 44.769001 10.967000 250.897995
404 1 4 0.053000 42.221001 10.659000 252.617004
405 1 4 0.053000 42.455002 10.004000 250.947006
406 1 4 0.053000 42.787998 12.337000 250.085007
407 1 4 0.053000 42.570000 12.982000 251.761993
408 1 4 0.053000 40.264999 12.007000 251.839005
409 1 4 0.053000 40.474998 11.378000 250.154999
410 1 4 0.053000 40.807999 13.723000 249.328995
411 1 4 0.053000 40.604000 14.344000 251.016006
412 1 4 0.053000 38.293999 13.375000 251.095001
413 1 4 0.053000 38.498001 12.760000 249.406006
414 1 4 0.053000 38.839001 15.106000 248.598007
415 1 4 0.053000 38.624001 15.720000 250.285995
416 1 4 0.053000 36.308998 14.754000 250.337006
417 1 4 0.053000 36.535999 14.135000 248.653000
418 1 4 0.053000 36.896999 16.475000 247.841995
419 1 4 0.053000 36.646000 17.098000 249.520996
420 1 4 0.053000 34.327000 16.136000 249.524002
421 1 4 0.053000 34.594002 15.501000 247.852005
422 1 4 0.053000 34.987999 17.816000 247.033005
423 1 4 0.053000 34.699001 18.457001 248.699997
424 1 4 0.053000 32.386002 17.461000 248.664993
425 1 4 0.053000 32.682999 16.822001 247.016006
426 1 4 0.053000 30.707001 17.915001 246.209000
427 1 4 0.053000 30.455000 19.676001 246.462006
428 1 4 0.053000 30.392000 18.552999 247.863007
429 1 4 0.053000 33.652000 20.327999 248.149994
430 1 4 0.053000 32.139000 19.886000 249.026001
431 1 4 0.053000 32.095001 21.007999 247.619003
432 1 4 0.053000 34.075001 19.469999 245.899002
433 1 4 0.053000 32.523998 20.118000 245.319000
434 1 4 0.053000 32.889999 18.368000 245.102997
435 1 4 0.053000 33.529999 20.396999 246.382996
436 1 4 0.053000 22.329000 50.058998 407.399994
437 1 4 0.053000 20.898001 50.077999 407.941986
438 1 4 0.053000 20.816999 50.894001 409.234985
439 1 4 0.053000 19.389999 50.889999 409.790009
440 1 4 0.053000 19.313999 51.681000 411.097992
441 1 5 -1.000000 17.889000 51.668999 411.657013
442 1 1 -0.106000 16.391001 52.455002 413.523987
443 1 1 -0.106000 16.320999 53.252998 414.828003
444 1 1 -0.106000 14.892000 53.290001 415.373993
445 1 1 -0.106000 14.828000 54.115002 416.665009
446 1 1 -0.106000 13.380000 54.181999 417.199005
447 1 1 -0.106000 13.195000 54.977001 418.451996
448 1 1 -0.106000 13.594000 56.391998 418.261993
449 1 1 -0.106000 13.962000 54.394001 419.579987
450 1 1 -0.106000 11.755000 54.945000 418.803009
451 1 1 -0.106000 22.417999 49.215000 406.125000
452 1 1 -0.106000 23.855000 49.174999 405.596985
453 1 1 0.301100 23.948999 48.314999 404.332001
454 1 2 -0.628400 25.382000 48.264999 403.808990
455 1 3 0.248100 25.422001 47.634998 402.895996
456 1 3 0.248100 26.055000 47.826000 404.575989
457 1 3 0.248100 25.733999 49.286999 403.553986
458 1 1 -0.106000 23.291000 48.737999 403.541992
459 1 1 -0.106000 23.614000 47.279999 404.558990
460 1 1 -0.106000 24.520000 48.748001 406.378998
461 1 3 -0.159000 24.191000 50.209999 405.365997
462 1 4 0.053000 21.747999 49.646999 405.347992
463 1 4 0.053000 22.083000 48.178001 406.350006
464 1 4 0.053000 23.004000 49.624001 408.170990
465 1 4 0.053000 22.657000 51.098999 407.182007
466 1 4 0.053000 20.572001 49.035000 408.149994
467 1 4 0.053000 20.218000 50.521000 407.181000
468 1 4 0.053000 21.135000 51.941002 409.035004
469 1 4 0.053000 21.502001 50.449001 409.990997
470 1 4 0.053000 19.073000 49.841999 409.980011
471 1 4 0.053000 18.702000 51.344002 409.040985
472 1 4 0.053000 19.629999 52.733002 410.912994
473 1 4 0.053000 20.004000 51.227001 411.842010
474 1 4 0.053000 17.573000 50.618000 411.838989
475 1 4 0.053000 17.200001 52.127998 410.914001
476 1 4 0.053000 18.139999 53.500999 412.786987
477 1 4 0.053000 18.502001 51.990002 413.713989
478 1 4 0.053000 16.061001 51.410000 413.712006
479 1 4 0.053000 15.709000 52.916000 412.774994
480 1 4 0.053000 16.664000 54.292999 414.635010
481 1 4 0.053000 16.995001 52.787998 415.582001
482 1 4 0.053000 14.542000 52.254002 415.575989
483 1 4 0.053000 14.224000 53.750999 414.612000
484 1 4 0.053000 15.199000 55.134998 416.434998
485 1 4 0.053000 15.498000 53.640999 417.411011
486 1 4 0.053000 13.031000 53.136002 417.364990
487 1 4 0.053000 12.744000 54.612999 416.390991
488 1 4 0.053000 11.133000 55.386002 417.990997
489 1 4 0.053000 11.551000 55.521000 419.733002
490 1 4 0.053000 11.405000 53.900002 418.971008
491 1 4 0.053000 15.058000 54.470001 419.415009
492 1 4 0.053000 13.701000 53.323002 419.729004
493 1 4 0.053000 13.748000 54.935001 420.528992
494 1 4 0.053000 14.687000 56.493000 418.092010
495 1 4 0.053000 13.362000 56.999001 419.165009
496 1 4 0.053000 13.059000 56.845001 417.397003
497 1 4 0.053000 14.601000 56.172001 419.222992
498 1 4 0.053000 7.553000 13.999000 395.334015
499 1 4 0.053000 8.755000 14.931000 395.503998
500 1 4 0.053000 8.613000 16.169001 394.614990
501 1 4 0.053000 9.829000 17.087000 394.765015
502 1 4 0.053000 9.702000 18.311001 393.855011
503 1 4 0.053000 10.922000 19.223000 394.000000
504 1 5 -1.000000 10.799000 20.441000 393.082001
505 2 3 -0.159000 25.834000 34.646999 450.657013
506 2 1 -0.106000 24.905001 35.832001 450.411011
507 2 1 -0.106000 25.611000 37.161999 450.699005
508 2 1 -0.106000 24.658001 38.337002 450.446014
509 2 1 -0.106000 25.302999 39.714001 450.656006
510 2 1 -0.106000 25.739000 39.978001 452.108002
511 2 1 -0.106000 26.211000 41.426998 452.260010
512 2 1 -0.106000 26.587000 41.771999 453.709991
513 2 1 -0.106000 26.857000 43.277000 453.824005
514 2 1 -0.106000 27.100000 43.743000 455.272003
515 2 1 -0.106000 27.044001 45.278000 455.321014
516 2 1 0.301100 27.077999 45.856998 456.759003
517 2 2 -0.628400 26.683001 47.307999 456.871002
518 2 3 0.248100 27.660000 48.147999 456.131989
519 2 3 0.248100 26.743999 47.706001 458.299011
520 2 1 0.301100 25.311001 47.588001 456.320007
521 2 1 -0.106000 24.143999 46.870998 457.059998
522 2 1 -0.106000 22.902000 46.604000 456.183014
523 2 1 -0.106000 23.209000 45.507999 455.140015
524 2 1 -0.106000 21.974001 44.952999 454.421997
525 2 1 -0.106000 22.400999 43.762001 453.548004
526 2 1 -0.106000 21.216000 43.067001 452.869995
527 2 1 -0.106000 21.701000 41.819000 452.118011
528 2 1 -0.106000 20.538000 41.057999 451.472992
529 2 1 -0.106000 21.042999 39.777000 450.795013
530 2 1 -0.106000 19.893000 38.988998 450.161987
531 2 3 -0.159000 20.400999 37.705002 449.511993
532 2 4 0.053000 25.292999 33.701000 450.438995
533 2 4 0.053000 26.166000 34.630001 451.717010
534 2 4 0.053000 26.723000 34.709000 449.993988
535 2 4 0.053000 24.014000 35.730999 451.067993
536 2 4 0.053000 24.568001 35.808998 449.351990
537 2 4 0.053000 26.500000 37.259998 450.036011
538 2 4 0.053000 25.945999 37.168999 451.757996
539 2 4 0.053000 23.768999 38.244999 451.105988
540 2 4 0.053000 24.311001 38.287998 449.390015
541 2 4 0.053000 24.538000 40.471001 450.377014
542 2 4 0.053000 26.173000 39.834000 449.971985
543 2 4 0.053000 26.556000 39.286999 452.404999
544 2 4 0.053000 24.865999 39.817001 452.778015
545 2 4 0.053000 25.371000 42.087002 451.946014
546 2 4 0.053000 27.080999 41.622002 451.592987
547 2 4 0.053000 27.472000 41.183998 454.037994
548 2 4 0.053000 25.725000 41.522999 454.367004
549 2 4 0.053000 25.941999 43.786999 453.446014
550 2 4 0.053000 27.714001 43.577000 453.181000
551 2 4 0.053000 28.063000 43.352001 455.664001
552 2 4 0.053000 26.271000 43.355000 455.904999
553 2 4 0.053000 26.079000 45.514999 454.859985
554 2 4 0.053000 27.850000 45.716000 454.696014
555 2 4 0.053000 28.101000 45.692001 457.170990
556 2 4 0.053000 26.417000 45.237000 457.394012
557 2 4 0.053000 25.292999 47.361000 455.243011
558 2 4 0.053000 25.082001 48.678001 456.329987
559 2 4 0.053000 23.875000 47.478001 457.950012
560 2 4 0.053000 24.434000 45.879002 457.446014
561 2 4 0.053000 22.520000 47.532001 455.707001
562 2 4 0.053000 22.115000 46.209000 456.862000
563 2 4 0.053000 23.677999 44.653000 455.678986
564 2 4 0.053000 23.917000 45.880001 454.376007
565 2 4 0.053000 21.493000 45.743999 453.808014
566 2 4 0.053000 21.247000 44.592999 455.183990
567 2 4 0.053000 22.908001 43.014999 454.199005
568 2 4 0.053000 23.125999 44.101002 452.773987
569 2 4 0.053000 20.714001 43.770000 452.170990
570 2 4 0.053000 20.487000 42.752998 453.649994
571 2 4 0.053000 22.211000 41.141998 452.839996
572 2 4 0.053000 22.431999 42.113998 451.333008
573 2 4 0.053000 20.035999 41.709000 450.725006
574 2 4 0.053000 19.802000 40.779999 452.260010
575 2 4 0.053000 21.539000 39.138000 451.558990
576 2 4 0.053000 21.785999 40.042000 450.010010
577 2 4 0.053000 19.392000 39.612999 449.390015
578 2 4 0.053000 19.146999 38.723000 450.944000
579 2 4 0.053000 21.136000 37.941002 448.713013
580 2 4 0.053000 19.549999 37.152000 449.062988
581 2 4 0.053000 20.886999 37.054001 450.272003
582 2 4 0.053000 27.771000 47.581001 458.708008
583 2 4 0.053000 26.069000 47.083000 458.925995
584 2 4 0.053000 26.448999 48.771000 458.433014
585 2 4 0.053000 28.698999 47.965000 456.487000
586 2 4 0.053000 27.441999 49.231998 456.269012
587 2 4 0.053000 27.629000 47.950001 455.040009
588 2 5 -1.000000 28.579000 47.931000 457.007996
589 1 1 -0.106000 48.722000 39.737999 473.516998
590 1 1 -0.106000 47.999001 40.896000 474.208008
591 1 1 -0.106000 46.518002 40.566002 474.415009
592 1 1 -0.106000 45.791000 41.737000 475.082001
593 1 1 -0.106000 44.304001 41.419998 475.263000
594 1 1 -0.106000 43.576000 42.592999 475.920990
595 1 1 -0.106000 42.088001 42.278999 476.092987
596 1 1 -0.106000 41.359001 43.444000 476.764008
597 1 1 -0.106000 39.875000 43.117001 476.947998
598 1 1 -0.106000 39.141998 44.264000 477.648987
599 1 1 -0.106000 37.662998 43.915001 477.852997
600 1 1 0.301100 36.930000 45.056999 478.592010
601 1 2 -0.628400 35.477001 44.818001 478.859009
602 1 3 0.248100 35.271999 43.622002 479.712006
603 1 3 0.248100 34.714001 44.664001 477.596985
604 1 3 0.248100 34.949001 46.000000 479.582001
605 1 1 -0.106000 50.196999 40.080002 473.278015
606 1 1 -0.106000 50.914001 38.931000 472.565002
607 1 1 -0.106000 52.383999 39.279999 472.308990
608 1 3 -0.159000 53.099998 38.139999 471.588013
609 1 4 0.053000 54.159000 38.419998 471.412994
610 1 4 0.053000 52.616001 37.941002 470.608002
611 1 4 0.053000 53.070999 37.216999 472.204987
612 1 4 0.053000 52.896999 39.473999 473.274994
613 1 4 0.053000 52.446999 40.195000 471.681000
614 1 4 0.053000 50.410999 38.733002 471.592987
615 1 4 0.053000 50.855000 38.014000 473.192993
616 1 4 0.053000 50.692001 40.278999 474.255005