LAMMPS data file containing the original structures and the polarizable gold

19992 atoms
16001 bonds
24420 angles
34830 dihedrals
0 impropers

7 atom types
7 bond types
13 angle types
15 dihedral types

-48.244907 106.934097 xlo xhi
-3.000000 64.939980 ylo yhi
-3.000000 96.387703 zlo zhi

Masses

1 12.011150
2 14.006700
3 12.011150
4 1.007970
5 79.908997
6 195.960007
7 1.000000

Atoms

1 1 1 -0.106000 52.473000 50.615002 95.583000
2 1 1 -0.106000 51.365002 50.435001 96.624001
3 1 1 -0.106000 50.535000 49.183998 96.324997
4 1 1 -0.106000 49.410999 49.021000 97.350998
5 1 1 -0.106000 48.562000 47.787998 97.036003
6 1 1 -0.106000 47.433998 47.630001 98.056999
7 1 1 -0.106000 46.580002 46.402000 97.736000
8 1 1 -0.106000 45.459000 46.233002 98.763000
9 1 1 -0.106000 44.618999 44.993000 98.445999
10 1 1 -0.106000 43.514999 44.796001 99.487000
11 1 1 -0.106000 42.696999 43.537998 99.176003
12 1 1 0.301100 41.604000 43.318001 100.245003
13 1 2 -0.628400 40.750000 42.105000 100.050003
14 1 3 0.248100 41.560001 40.862999 100.074997
15 1 3 0.248100 39.993000 42.176998 98.777000
16 1 3 0.248100 39.778999 42.049000 101.167999
17 1 1 -0.106000 53.283001 51.883999 95.861000
18 1 1 -0.106000 54.375999 52.076000 94.806000
19 1 1 -0.106000 55.174000 53.355999 95.071999
20 1 3 -0.159000 56.257000 53.556999 94.014999
21 1 4 0.053000 56.817001 54.490002 94.230003
22 1 4 0.053000 55.799000 53.639000 93.005997
23 1 4 0.053000 56.966999 52.702999 94.026001
24 1 4 0.053000 55.653999 53.298000 96.072998
25 1 4 0.053000 54.491001 54.234001 95.055000
26 1 4 0.053000 53.903999 52.143002 93.800003
27 1 4 0.053000 55.062000 51.202000 94.822998
28 1 4 0.053000 53.749001 51.811001 96.869003
29 1 4 0.053000 52.601002 52.764000 95.845001
30 1 4 0.053000 52.013000 50.692001 94.571999
31 1 4 0.053000 53.146999 49.730999 95.602997
32 1 4 0.053000 50.699001 51.326000 96.603996
33 1 4 0.053000 51.817001 50.347000 97.636002
34 1 4 0.053000 51.192001 48.286999 96.348000
35 1 4 0.053000 50.089001 49.277000 95.308998
36 1 4 0.053000 48.762001 49.924000 97.331001
37 1 4 0.053000 49.852001 48.918999 98.367996
38 1 4 0.053000 49.208000 46.881001 97.056000
39 1 4 0.053000 48.125000 47.893002 96.018997
40 1 4 0.053000 46.790001 48.539001 98.040001
41 1 4 0.053000 47.870998 47.520000 99.073997
42 1 4 0.053000 47.226002 45.495998 97.747002
43 1 4 0.053000 46.138000 46.514000 96.722000
44 1 4 0.053000 44.806999 47.133999 98.755997
45 1 4 0.053000 45.905998 46.123001 99.776001
46 1 4 0.053000 45.280998 44.098999 98.443001
47 1 4 0.053000 44.162998 45.105000 97.436996
48 1 4 0.053000 42.845001 45.683998 99.492996
49 1 4 0.053000 43.979000 44.691002 100.492996
50 1 4 0.053000 43.395000 42.674999 99.158997
51 1 4 0.053000 42.243000 43.660000 98.170998
52 1 4 0.053000 40.959999 44.229000 100.263000
53 1 4 0.053000 42.111000 43.257000 101.236000
54 1 4 0.053000 40.299000 41.979000 102.150002
55 1 4 0.053000 39.110001 41.162998 101.079002
56 1 4 0.053000 39.132999 42.957001 101.185997
57 1 4 0.053000 40.665001 42.132999 97.893997
58 1 4 0.053000 39.396000 43.113998 98.719002
59 1 4 0.053000 39.292000 41.317001 98.681000
60 1 4 0.053000 42.243000 40.798000 99.202003
61 1 4 0.053000 40.909000 39.960999 100.028999
62 1 4 0.053000 42.167000 40.800999 101.004997
63 1 5 -1.000000 41.168999 40.657001 98.736000
64 1 1 -0.106000 44.254002 11.111000 44.424999
65 1 1 -0.106000 44.751999 12.232000 45.339001
66 1 1 -0.106000 46.000999 12.897000 44.752998
67 1 1 -0.106000 46.514000 14.001000 45.681999
68 1 1 -0.106000 47.778999 14.646000 45.112000
69 1 1 -0.106000 48.296001 15.743000 46.044998
70 1 1 -0.106000 49.566002 16.381001 45.478001
71 1 1 -0.106000 50.078999 17.488001 46.402000
72 1 1 -0.106000 51.339001 18.132999 45.820999
73 1 1 -0.106000 51.841000 19.264999 46.721001
74 1 1 -0.106000 53.088001 19.923000 46.118000
75 1 1 0.301100 53.576000 21.087999 47.007000
76 1 2 -0.628400 54.783001 21.815001 46.506001
77 1 3 0.248100 54.534000 22.430000 45.179001
78 1 3 0.248100 55.959999 20.916000 46.421001
79 1 3 0.248100 55.092999 22.899000 47.469002
80 1 1 -0.106000 43.023998 10.422000 45.026001
81 1 1 -0.106000 42.540001 9.285000 44.123001
82 1 1 -0.106000 41.323002 8.583000 44.733002
83 1 3 -0.159000 40.845001 7.441000 43.840000
84 1 4 0.053000 39.966000 6.949000 44.306000
85 1 4 0.053000 41.651001 6.687000 43.715000
86 1 4 0.053000 40.549999 7.830000 42.842999
87 1 4 0.053000 40.493999 9.312000 44.861000
88 1 4 0.053000 41.591000 8.169000 45.730000
89 1 4 0.053000 43.362000 8.545000 43.994999
90 1 4 0.053000 42.269001 9.696000 43.125999
91 1 4 0.053000 42.209000 11.169000 45.153000
92 1 4 0.053000 43.290001 10.009000 46.025002
93 1 4 0.053000 45.063999 10.359000 44.296001
94 1 4 0.053000 43.993999 11.532000 43.429001
95 1 4 0.053000 45.001999 11.806000 46.335999
96 1 4 0.053000 43.951000 12.994000 45.465000
97 1 4 0.053000 45.758999 13.332000 43.757999
98 1 4 0.053000 46.797001 12.130000 44.625999
99 1 4 0.053000 46.745998 13.564000 46.678001
100 1 4 0.053000 45.724998 14.776000 45.805000
101 1 4 0.053000 47.550999 15.086000 44.113998
102 1 4 0.053000 48.563999 13.868000 44.987999
103 1 4 0.053000 48.521000 15.303000 47.042999
104 1 4 0.053000 47.513000 16.523001 46.165001
105 1 4 0.053000 49.341999 16.813999 44.478001
106 1 4 0.053000 50.352001 15.602000 45.363998
107 1 4 0.053000 50.307999 17.063000 47.403000
108 1 4 0.053000 49.289001 18.263000 46.514000
109 1 4 0.053000 51.105000 18.545000 44.814999
110 1 4 0.053000 52.133999 17.362000 45.716000
111 1 4 0.053000 52.084000 18.861000 47.728001
112 1 4 0.053000 51.039001 20.028999 46.826000
113 1 4 0.053000 52.819000 20.298000 45.109001
114 1 4 0.053000 53.875999 19.146999 46.021999
115 1 4 0.053000 53.784000 20.674000 48.021999
116 1 4 0.053000 52.730000 21.806000 47.113998
117 1 4 0.053000 54.243000 23.612000 47.557999
118 1 4 0.053000 55.987999 23.480000 47.150002
119 1 4 0.053000 55.303001 22.488001 48.483002
120 1 4 0.053000 55.823002 20.129999 45.648998
121 1 4 0.053000 56.153000 20.419001 47.397999
122 1 4 0.053000 56.874001 21.482000 46.136002
123 1 4 0.053000 54.391998 21.663000 44.389999
124 1 4 0.053000 55.400002 23.051001 44.858002
125 1 4 0.053000 53.632999 23.083000 45.205002
126 1 5 -1.000000 55.534000 21.577999 44.667000
127 1 1 -0.106000 5.705000 26.533001 92.828003
128 1 1 -0.106000 5.256000 27.829000 93.504997
129 1 1 -0.106000 6.363000 28.384001 94.405998
130 1 1 -0.106000 5.902000 29.666000 95.103996
131 1 1 -0.106000 6.997000 30.205000 96.028000
132 1 1 -0.106000 6.533000 31.482000 96.732002
133 1 1 -0.106000 7.624000 32.014000 97.662003
134 1 1 -0.106000 7.169000 33.299000 98.357002
135 1 1 -0.106000 8.272000 33.835999 99.273003
136 1 1 -0.106000 7.839000 35.139999 99.947998
137 1 1 -0.106000 8.959000 35.683998 100.842003
138 1 1 0.301100 8.537000 37.018002 101.497002
139 1 2 -0.628400 9.563000 37.650002 102.383003
140 1 3 0.248100 10.803000 37.971001 101.635002
141 1 3 0.248100 9.894000 36.777000 103.536003
142 1 3 0.248100 8.995000 38.916000 102.904999
143 1 1 -0.106000 4.587000 25.959000 91.952003
144 1 1 -0.106000 5.028000 24.649000 91.293999
145 1 1 -0.106000 3.904000 24.063999 90.433998
146 1 3 -0.159000 4.336000 22.752001 89.783997
147 1 4 0.053000 3.504000 22.349001 89.169998
148 1 4 0.053000 4.598000 22.004999 90.564003
149 1 4 0.053000 5.216000 22.920000 89.127998
150 1 4 0.053000 3.626000 24.787001 89.636002
151 1 4 0.053000 3.010000 23.872000 91.067001
152 1 4 0.053000 5.301000 23.916000 92.084999
153 1 4 0.053000 5.920000 24.839001 90.656998
154 1 4 0.053000 4.318000 26.698000 91.165001
155 1 4 0.053000 3.691000 25.766001 92.584000
156 1 4 0.053000 5.973000 25.787001 93.610001
157 1 4 0.053000 6.602000 26.733000 92.202003
158 1 4 0.053000 4.354000 27.624001 94.123001
159 1 4 0.053000 4.996000 28.584000 92.730003
160 1 4 0.053000 7.268000 28.598000 93.795998
161 1 4 0.053000 6.621000 27.622999 95.177002
162 1 4 0.053000 4.993000 29.450001 95.706001
163 1 4 0.053000 5.652000 30.434000 94.337997
164 1 4 0.053000 7.910000 30.424000 95.429001
165 1 4 0.053000 7.246000 29.434999 96.791000
166 1 4 0.053000 5.618000 31.264000 97.328003
167 1 4 0.053000 6.288000 32.254002 95.969002
168 1 4 0.053000 8.540000 32.226002 97.067001
169 1 4 0.053000 7.865000 31.245001 98.429001
170 1 4 0.053000 6.255000 33.096001 98.957001
171 1 4 0.053000 6.928000 34.064999 97.586998
172 1 4 0.053000 9.185000 34.025002 98.667999
173 1 4 0.053000 8.508000 33.076000 100.051003
174 1 4 0.053000 6.928000 34.959000 100.560997
175 1 4 0.053000 7.599000 35.893002 99.164001
176 1 4 0.053000 9.856000 35.835999 100.207001
177 1 4 0.053000 9.184000 34.922001 101.615997
178 1 4 0.053000 7.606000 36.827999 102.081001
179 1 4 0.053000 8.271000 37.724998 100.677002
180 1 4 0.053000 8.742000 39.615002 102.075996
181 1 4 0.053000 9.715000 39.436001 103.575996
182 1 4 0.053000 8.065000 38.729000 103.489998
183 1 4 0.053000 10.405000 35.845001 103.213997
184 1 4 0.053000 8.977000 36.498001 104.100998
185 1 4 0.053000 10.588000 37.291000 104.237999
186 1 4 0.053000 11.331000 37.054001 101.300003
187 1 4 0.053000 11.522000 38.528999 102.274002
188 1 4 0.053000 10.579000 38.596001 100.741997
189 1 5 -1.000000 11.470000 37.053001 102.471001
190 1 1 -0.106000 54.841999 33.928001 75.842003
191 1 1 -0.106000 54.398998 35.139999 76.665001
192 1 1 -0.106000 54.261002 34.771000 78.143997
193 1 1 -0.106000 53.792000 35.978001 78.961998
194 1 1 -0.106000 53.625000 35.604000 80.435997
195 1 1 -0.106000 53.146999 36.807999 81.250999
196 1 1 -0.106000 52.971001 36.430000 82.723000
197 1 1 -0.106000 52.507999 37.634998 83.543999
198 1 1 -0.106000 52.351002 37.254002 85.017998
199 1 1 -0.106000 51.918999 38.462002 85.853996
200 1 1 -0.106000 51.790001 38.077000 87.332001
201 1 1 0.301100 51.389000 39.303001 88.182999
202 1 2 -0.628400 51.248001 39.047001 89.650002
203 1 3 0.248100 52.521999 38.576000 90.242996
204 1 3 0.248100 50.178001 38.057999 89.926003
205 1 3 0.248100 50.876999 40.327000 90.301003
206 1 1 -0.106000 54.948002 34.285999 74.356003
207 1 1 -0.106000 55.368000 33.067001 73.529999
208 1 1 -0.106000 55.455002 33.418999 72.042000
209 1 3 -0.159000 55.862000 32.202999 71.213997
210 1 4 0.053000 55.915001 32.484001 70.141998
211 1 4 0.053000 55.116001 31.389000 71.333000
212 1 4 0.053000 56.859001 31.834999 71.537003
213 1 4 0.053000 56.203999 34.226002 71.890999
214 1 4 0.053000 54.466000 33.779999 71.683998
215 1 4 0.053000 54.618999 32.255001 73.669998
216 1 4 0.053000 56.358002 32.705002 73.884003
217 1 4 0.053000 55.695999 35.098999 74.225998
218 1 4 0.053000 53.959000 34.647999 73.997002
219 1 4 0.053000 54.096001 33.111000 75.966003
220 1 4 0.053000 55.828999 33.570000 76.209999
221 1 4 0.053000 53.416000 35.498001 76.286003
222 1 4 0.053000 55.145000 35.957001 76.554001
223 1 4 0.053000 55.241001 34.417999 78.532997
224 1 4 0.053000 53.515999 33.951000 78.248001
225 1 4 0.053000 52.816002 36.334000 78.565002
226 1 4 0.053000 54.537998 36.799000 78.869003
227 1 4 0.053000 54.599998 35.248001 80.838997
228 1 4 0.053000 52.880001 34.782001 80.524002
229 1 4 0.053000 52.174000 37.166000 80.846001
230 1 4 0.053000 53.894001 37.627998 81.167000
231 1 4 0.053000 53.943001 36.066002 83.125000
232 1 4 0.053000 52.220001 35.613998 82.808998
233 1 4 0.053000 51.535000 38.002998 83.150002
234 1 4 0.053000 53.262001 38.448002 83.454002
235 1 4 0.053000 53.324001 36.875999 85.400002
236 1 4 0.053000 51.590000 36.446999 85.112000
237 1 4 0.053000 50.943001 38.844002 85.482002
238 1 4 0.053000 52.681000 39.266998 85.750000
239 1 4 0.053000 52.771999 37.683998 87.667000
240 1 4 0.053000 51.028000 37.276001 87.416000
241 1 4 0.053000 50.425999 39.695000 87.778000
242 1 4 0.053000 52.158001 40.092999 88.017998
243 1 4 0.053000 51.658001 41.103001 90.135002
244 1 4 0.053000 50.756001 40.201000 91.400002
245 1 4 0.053000 49.915001 40.719002 89.899002
246 1 4 0.053000 50.438999 37.049999 89.537003
247 1 4 0.053000 49.214001 38.373001 89.468002
248 1 4 0.053000 50.016998 37.939999 91.021004
249 1 4 0.053000 52.806000 37.570999 89.866997
250 1 4 0.053000 52.438000 38.483002 91.348999
251 1 4 0.053000 53.352001 39.283001 90.019997
252 1 5 -1.000000 51.862000 37.368000 90.544998
253 1 1 -0.106000 42.032001 14.463000 30.955000
254 1 1 -0.106000 43.551998 14.590000 31.076000
255 1 1 -0.106000 44.159000 13.314000 31.667000
256 1 1 -0.106000 45.676998 13.453000 31.813000
257 1 1 -0.106000 46.280998 12.190000 32.430000
258 1 1 -0.106000 47.797001 12.332000 32.584999
259 1 1 -0.106000 48.397999 11.073000 33.210999
260 1 1 -0.106000 49.916000 11.206000 33.353001
261 1 1 -0.106000 50.513000 9.936000 33.964001
262 1 1 -0.106000 52.035999 10.046000 34.080002
263 1 1 -0.106000 52.626999 8.760000 34.667999
264 1 1 0.301100 54.166000 8.856000 34.754002
265 1 2 -0.628400 54.855000 7.646000 35.300999
266 1 3 0.248100 54.596001 6.449000 34.465000
267 1 3 0.248100 54.438000 7.372000 36.698002
268 1 3 0.248100 56.313000 7.910000 35.293999
269 1 1 -0.106000 41.419998 15.751000 30.396000
270 1 1 -0.106000 39.896999 15.632000 30.297001
271 1 1 -0.106000 39.282001 16.927000 29.757000
272 1 3 -0.159000 37.762001 16.816000 29.667000
273 1 4 0.053000 37.342999 17.766001 29.275999
274 1 4 0.053000 37.331001 16.622999 30.672001
275 1 4 0.053000 37.476002 15.990000 28.981001
276 1 4 0.053000 39.688000 17.141001 28.743999
277 1 4 0.053000 39.539001 17.773001 30.430000
278 1 4 0.053000 39.480000 15.424000 31.308001
279 1 4 0.053000 39.636002 14.788000 29.621000
280 1 4 0.053000 41.844002 15.953000 29.386999
281 1 4 0.053000 41.678001 16.599001 31.069000
282 1 4 0.053000 41.602001 14.263000 31.962000
283 1 4 0.053000 41.784000 13.611000 30.284000
284 1 4 0.053000 43.794998 15.448000 31.742001
285 1 4 0.053000 43.992001 14.779000 30.072001
286 1 4 0.053000 43.926998 12.451000 31.004999
287 1 4 0.053000 43.713001 13.128000 32.669998
288 1 4 0.053000 45.904999 14.322000 32.467999
289 1 4 0.053000 46.129002 13.629000 30.811001
290 1 4 0.053000 46.056999 11.316000 31.777000
291 1 4 0.053000 45.825001 12.015000 33.430000
292 1 4 0.053000 48.021000 13.208000 33.235001
293 1 4 0.053000 48.252998 12.502000 31.584999
294 1 4 0.053000 48.167000 10.198000 32.563000
295 1 4 0.053000 47.945999 10.906000 34.213001
296 1 4 0.053000 50.154999 12.077000 34.001999
297 1 4 0.053000 50.362999 11.374000 32.348000
298 1 4 0.053000 50.258999 9.068000 33.317001
299 1 4 0.053000 50.075001 9.771000 34.973999
300 1 4 0.053000 52.299000 10.909000 34.730999
301 1 4 0.053000 52.466000 10.218000 33.068001
302 1 4 0.053000 52.332001 7.918000 34.007999
303 1 4 0.053000 52.188000 8.606000 35.674999
304 1 4 0.053000 54.416000 9.743000 35.382000
305 1 4 0.053000 54.548000 9.065000 33.727001
306 1 4 0.053000 56.681000 8.109000 34.262001
307 1 4 0.053000 56.884998 7.042000 35.693001
308 1 4 0.053000 56.564999 8.796000 35.922001
309 1 4 0.053000 53.368000 7.080000 36.758999
310 1 4 0.053000 54.596001 8.264000 37.344002
311 1 4 0.053000 55.020000 6.527000 37.129002
312 1 4 0.053000 53.530998 6.139000 34.507000
313 1 4 0.053000 55.188999 5.577000 34.820000
314 1 4 0.053000 54.866001 6.639000 33.402000
315 1 5 -1.000000 53.945999 5.887000 35.582001
316 1 1 -0.106000 7.468000 16.191999 103.745003
317 1 1 -0.106000 7.701000 14.997000 104.672997
318 1 1 -0.106000 9.086000 14.388000 104.436996
319 1 1 -0.106000 9.306000 13.176000 105.347000
320 1 1 -0.106000 10.679000 12.549000 105.092003
321 1 1 -0.106000 10.895000 11.332000 105.995003
322 1 1 -0.106000 12.263000 10.700000 105.732002
323 1 1 -0.106000 12.489000 9.492000 106.642998
324 1 1 -0.106000 13.867000 8.874000 106.388000
325 1 1 -0.106000 14.116000 7.685000 107.318001
326 1 1 -0.106000 15.508000 7.090000 107.072998
327 1 1 0.301100 15.776000 5.911000 108.035004
328 1 2 -0.628400 17.115999 5.261000 107.894997
329 1 3 0.248100 18.214001 6.221000 108.157997
330 1 3 0.248100 17.290001 4.667000 106.546997
331 1 3 0.248100 17.198999 4.173000 108.898003
332 1 1 -0.106000 6.070000 16.781000 103.955002
333 1 1 -0.106000 5.828000 17.962000 103.011002
334 1 1 -0.106000 4.423000 18.540001 103.206001
335 1 3 -0.159000 4.175000 19.709999 102.258003
336 1 4 0.053000 3.151000 20.107000 102.417999
337 1 4 0.053000 4.267000 19.375999 101.203003
338 1 4 0.053000 4.908000 20.521999 102.449997
339 1 4 0.053000 4.305000 18.893000 104.253998
340 1 4 0.053000 3.664000 17.752001 103.008003
341 1 4 0.053000 5.938000 17.615999 101.959000
342 1 4 0.053000 6.585000 18.753000 103.209000
343 1 4 0.053000 5.968000 17.122000 105.010002
344 1 4 0.053000 5.308000 15.994000 103.758003
345 1 4 0.053000 7.565000 15.857000 102.688004
346 1 4 0.053000 8.235000 16.972000 103.945999
347 1 4 0.053000 6.926000 14.224000 104.472000
348 1 4 0.053000 7.615000 15.325000 105.732002
349 1 4 0.053000 9.868000 15.152000 104.640999
350 1 4 0.053000 9.167000 14.065000 103.375000
351 1 4 0.053000 8.518000 12.418000 105.147003
352 1 4 0.053000 9.236000 13.496000 106.411003
353 1 4 0.053000 11.472000 13.303000 105.292000
354 1 4 0.053000 10.746000 12.233000 104.028000
355 1 4 0.053000 10.099000 10.579000 105.796997
356 1 4 0.053000 10.832000 11.649000 107.058998
357 1 4 0.053000 13.057000 11.456000 105.924004
358 1 4 0.053000 12.325000 10.378000 104.668999
359 1 4 0.053000 11.701000 8.730000 106.456001
360 1 4 0.053000 12.426000 9.819000 107.705002
361 1 4 0.053000 14.648000 9.646000 106.565002
362 1 4 0.053000 13.929000 8.537000 105.329002
363 1 4 0.053000 13.342000 6.905000 107.142998
364 1 4 0.053000 14.046000 8.028000 108.374001
365 1 4 0.053000 16.254000 7.895000 107.237000
366 1 4 0.053000 15.559000 6.754000 106.016998
367 1 4 0.053000 14.974000 5.153000 107.871002
368 1 4 0.053000 15.657000 6.293000 109.074997
369 1 4 0.053000 17.087999 4.570000 109.931999
370 1 4 0.053000 18.179001 3.647000 108.844002
371 1 4 0.053000 16.400000 3.413000 108.736000
372 1 4 0.053000 17.323999 5.445000 105.755997
373 1 4 0.053000 16.462999 3.961000 106.311996
374 1 4 0.053000 18.250000 4.107000 106.480003
375 1 4 0.053000 18.267000 7.011000 107.380997
376 1 4 0.053000 19.202999 5.709000 108.151001
377 1 4 0.053000 18.087999 6.710000 109.150002
378 1 5 -1.000000 18.614000 6.034000 106.820000
379 1 1 -0.106000 18.329000 41.473000 86.761002
380 1 1 -0.106000 18.177999 42.987000 86.605003
381 1 1 -0.106000 19.537001 43.683998 86.714996
382 1 1 -0.106000 19.381001 45.201000 86.585999
383 1 1 -0.106000 20.735001 45.900002 86.725998
384 1 1 -0.106000 20.577000 47.417000 86.606003
385 1 1 -0.106000 21.930000 48.116001 86.754997
386 1 1 -0.106000 21.778999 49.632000 86.621002
387 1 1 -0.106000 23.138000 50.324001 86.753998
388 1 1 -0.106000 23.002001 51.839001 86.587997
389 1 1 -0.106000 24.371000 52.520000 86.695999
390 1 1 0.301100 24.240999 54.046001 86.494003
391 1 2 -0.628400 25.523001 54.813999 86.564003
392 1 3 0.248100 26.476999 54.374001 85.517998
393 1 3 0.248100 26.158001 54.685001 87.898003
394 1 3 0.248100 25.208000 56.243999 86.334000
395 1 1 -0.106000 16.966000 40.777000 86.684998
396 1 1 -0.106000 17.115000 39.264000 86.864998
397 1 1 -0.106000 15.750000 38.570999 86.808998
398 1 3 -0.159000 15.893000 37.063000 86.999001
399 1 4 0.053000 14.892000 36.585999 86.957001
400 1 4 0.053000 16.351999 36.841999 87.986000
401 1 4 0.053000 16.528000 36.632999 86.195999
402 1 4 0.053000 15.270000 38.765999 85.824997
403 1 4 0.053000 15.093000 38.971001 87.612000
404 1 4 0.053000 17.587999 39.058998 87.850998
405 1 4 0.053000 17.768999 38.860001 86.060997
406 1 4 0.053000 16.497999 40.991001 85.697998
407 1 4 0.053000 16.306999 41.178001 87.487999
408 1 4 0.053000 18.794001 41.251999 87.748001
409 1 4 0.053000 18.990999 41.081001 85.958000
410 1 4 0.053000 17.507999 43.370998 87.405998
411 1 4 0.053000 17.723000 43.216000 85.615997
412 1 4 0.053000 20.212999 43.310001 85.914001
413 1 4 0.053000 19.989000 43.446999 87.705002
414 1 4 0.053000 18.698999 45.569000 87.383003
415 1 4 0.053000 18.938999 45.443001 85.594002
416 1 4 0.053000 21.422001 45.535999 85.929001
417 1 4 0.053000 21.174999 45.653999 87.717003
418 1 4 0.053000 19.888000 47.780998 87.400002
419 1 4 0.053000 20.142000 47.664001 85.612000
420 1 4 0.053000 22.621000 47.745998 85.963997
421 1 4 0.053000 22.364000 47.875000 87.750000
422 1 4 0.053000 21.091999 50.009998 87.410004
423 1 4 0.053000 21.344000 49.868999 85.624001
424 1 4 0.053000 23.822001 49.931999 85.970001
425 1 4 0.053000 23.570999 50.097000 87.752998
426 1 4 0.053000 22.323000 52.241001 87.372002
427 1 4 0.053000 22.563000 52.057999 85.588997
428 1 4 0.053000 25.028999 52.084999 85.914001
429 1 4 0.053000 24.792999 52.292000 87.695999
430 1 4 0.053000 23.533001 54.430000 87.265999
431 1 4 0.053000 23.763000 54.214001 85.500999
432 1 4 0.053000 24.740000 56.397999 85.335999
433 1 4 0.053000 26.125999 56.872002 86.375000
434 1 4 0.053000 24.502001 56.630001 87.105003
435 1 4 0.053000 26.497000 53.646000 88.094002
436 1 4 0.053000 25.452999 54.983002 88.707001
437 1 4 0.053000 27.061001 55.331001 87.973000
438 1 4 0.053000 26.829000 53.335999 85.691002
439 1 4 0.053000 27.386000 55.014999 85.512001
440 1 4 0.053000 26.013000 54.425999 84.507004
441 1 5 -1.000000 27.329000 53.956001 86.559998
442 1 1 -0.106000 53.570000 31.559000 36.984001
443 1 1 -0.106000 52.887001 30.295000 37.511002
444 1 1 -0.106000 53.827999 29.091000 37.423000
445 1 1 -0.106000 53.133999 27.822001 37.925999
446 1 1 -0.106000 54.063999 26.612000 37.811001
447 1 1 -0.106000 53.367001 25.343000 38.305000
448 1 1 -0.106000 54.294998 24.132999 38.180000
449 1 1 -0.106000 53.605999 22.864000 38.687000
450 1 1 -0.106000 54.546001 21.660000 38.576000
451 1 1 -0.106000 53.876999 20.391001 39.111000
452 1 1 -0.106000 54.834999 19.197001 39.020000
453 1 1 0.301100 54.174999 17.923000 39.591999
454 1 2 -0.628400 55.027000 16.694000 39.568001
455 1 3 0.248100 56.261002 16.874001 40.369999
456 1 3 0.248100 55.389000 16.313999 38.181000
457 1 3 0.248100 54.243000 15.586000 40.165001
458 1 1 -0.106000 52.617001 32.757999 37.040001
459 1 1 -0.106000 53.292999 34.016998 36.490002
460 1 1 -0.106000 52.334999 35.212002 36.527000
461 1 3 -0.159000 53.001999 36.466000 35.969002
462 1 4 0.053000 52.286999 37.313999 36.005001
463 1 4 0.053000 53.306999 36.301998 34.914001
464 1 4 0.053000 53.896000 36.727001 36.573002
465 1 4 0.053000 52.019001 35.407001 37.575001
466 1 4 0.053000 51.431999 34.986000 35.918999
467 1 4 0.053000 53.606998 33.833000 35.438000
468 1 4 0.053000 54.195000 34.245998 37.098000
469 1 4 0.053000 52.306000 32.932999 38.094002
470 1 4 0.053000 51.712002 32.533001 36.431999
471 1 4 0.053000 53.880001 31.392000 35.928001
472 1 4 0.053000 54.473999 31.774000 37.594002
473 1 4 0.053000 51.978001 30.090000 36.902000
474 1 4 0.053000 52.581001 30.451000 38.569000
475 1 4 0.053000 54.737000 29.284000 38.034000
476 1 4 0.053000 54.132999 28.943001 36.362999
477 1 4 0.053000 52.222000 27.638000 37.318001
478 1 4 0.053000 52.835999 27.962000 38.988998
479 1 4 0.053000 54.980000 26.792000 38.417999
480 1 4 0.053000 54.362000 26.478001 36.748001
481 1 4 0.053000 52.450001 25.166000 37.699001
482 1 4 0.053000 53.074001 25.476000 39.369999
483 1 4 0.053000 55.214001 24.315001 38.780998
484 1 4 0.053000 54.584000 23.996000 37.115002
485 1 4 0.053000 52.688000 22.674000 38.090000
486 1 4 0.053000 53.318001 23.006001 39.751999
487 1 4 0.053000 55.466000 21.863001 39.165001
488 1 4 0.053000 54.827999 21.510000 37.509998
489 1 4 0.053000 52.958000 20.177000 38.522999
490 1 4 0.053000 53.592999 20.552000 40.174999
491 1 4 0.053000 55.747002 19.448999 39.599998
492 1 4 0.053000 55.106998 19.052999 37.955002
493 1 4 0.053000 53.237999 17.739000 39.015999
494 1 4 0.053000 53.874001 18.143999 40.643002
495 1 4 0.053000 53.957001 15.816000 41.216000
496 1 4 0.053000 54.826000 14.637000 40.174999
497 1 4 0.053000 53.306999 15.399000 39.589001
498 1 4 0.053000 56.054001 17.068001 37.708000
499 1 4 0.053000 54.480999 16.198999 37.549000
500 1 4 0.053000 55.945000 15.350000 38.164001
501 1 4 0.053000 56.941002 17.625000 39.917999
502 1 4 0.053000 56.841000 15.925000 40.430000
503 1 4 0.053000 56.020000 17.195000 41.408001
504 1 5 -1.000000 56.987000 16.712999 39.173000
505 1 1 -0.106000 53.217999 11.555000 86.588997
506 1 1 -0.106000 51.831001 11.947000 86.077003
507 1 1 -0.106000 51.935001 12.711000 84.752998
508 1 1 -0.106000 50.548000 13.126000 84.255997
509 1 1 -0.106000 50.653000 13.915000 82.948997
510 1 1 -0.106000 49.266998 14.338000 82.457001
511 1 1 -0.106000 49.375000 15.134000 81.155998
512 1 1 -0.106000 47.990002 15.547000 80.653000
513 1 1 -0.106000 48.103001 16.327999 79.342003
514 1 1 -0.106000 46.720001 16.716999 78.813004
515 1 1 -0.106000 46.841999 17.475000 77.486000
516 1 1 0.301100 45.445999 17.837999 76.932999
517 1 2 -0.628400 45.444000 18.570000 75.628998
518 1 3 0.248100 46.080002 17.768999 74.556000
519 1 3 0.248100 46.132000 19.879999 75.742996
520 1 3 0.248100 44.032001 18.818001 75.250000
521 1 1 -0.106000 53.118000 10.820000 87.929001
522 1 1 -0.106000 54.507000 10.449000 88.453003
523 1 1 -0.106000 54.409000 9.732000 89.804001
524 1 3 -0.159000 55.793999 9.370000 90.334000
525 1 4 0.053000 55.694000 8.855000 91.311996
526 1 4 0.053000 56.403000 10.288000 90.473999
527 1 4 0.053000 56.312000 8.691000 89.624001
528 1 4 0.053000 53.811001 8.802000 89.692001
529 1 4 0.053000 53.903999 10.393000 90.542000
530 1 4 0.053000 55.111000 11.375000 88.574997
531 1 4 0.053000 55.013000 9.785000 87.718002
532 1 4 0.053000 52.509998 9.897000 87.800003
533 1 4 0.053000 52.612000 11.480000 88.669998
534 1 4 0.053000 53.830002 12.474000 86.723999
535 1 4 0.053000 53.716999 10.899000 85.842003
536 1 4 0.053000 51.333000 12.596000 86.832001
537 1 4 0.053000 51.215000 11.032000 85.929001
538 1 4 0.053000 52.425999 12.067000 83.989998
539 1 4 0.053000 52.555000 13.623000 84.906998
540 1 4 0.053000 50.057999 13.762000 85.025002
541 1 4 0.053000 49.926998 12.217000 84.092003
542 1 4 0.053000 51.143002 13.282000 82.175003
543 1 4 0.053000 51.276001 14.821000 83.115997
544 1 4 0.053000 48.777000 14.967000 83.233002
545 1 4 0.053000 48.646000 13.431000 82.286003
546 1 4 0.053000 49.870998 14.506000 80.383003
547 1 4 0.053000 49.991001 16.044001 81.328003
548 1 4 0.053000 47.487000 16.177999 81.417999
549 1 4 0.053000 47.376999 14.633000 80.483002
550 1 4 0.053000 48.617001 15.695000 78.585999
551 1 4 0.053000 48.707001 17.247000 79.511002
552 1 4 0.053000 46.200001 17.355000 79.560997
553 1 4 0.053000 46.119999 15.794000 78.652000
554 1 4 0.053000 47.380001 16.820000 76.769997
555 1 4 0.053000 47.442001 18.391001 77.666000
556 1 4 0.053000 44.924999 18.450001 77.706001
557 1 4 0.053000 44.870998 16.889000 76.824997
558 1 4 0.053000 43.473000 17.862000 75.137001
559 1 4 0.053000 43.963001 19.364000 74.281998
560 1 4 0.053000 43.509998 19.431000 76.019997
561 1 4 0.053000 47.217999 19.757999 75.940002
562 1 4 0.053000 45.692001 20.492001 76.560997
563 1 4 0.053000 46.047001 20.458000 74.795998
564 1 4 0.053000 47.167000 17.632000 74.732002
565 1 4 0.053000 45.986000 18.277000 73.569000
566 1 4 0.053000 45.605999 16.766001 74.472000
567 1 5 -1.000000 47.062000 18.777000 74.472000
568 1 1 -0.106000 17.819000 42.595001 97.014999
569 1 1 -0.106000 18.763000 42.396000 98.203003
570 1 1 -0.106000 19.246000 43.743999 98.745003
571 1 1 -0.106000 20.212000 43.542999 99.917000
572 1 1 -0.106000 20.716999 44.889000 100.441002
573 1 1 -0.106000 21.688999 44.687000 101.605003
574 1 1 -0.106000 22.201000 46.033001 102.122002
575 1 1 -0.106000 23.162001 45.835999 103.295998
576 1 1 -0.106000 23.658001 47.186001 103.819000
577 1 1 -0.106000 24.594999 47.000999 105.015999
578 1 1 -0.106000 25.063999 48.360001 105.549004
579 1 1 0.301100 25.981001 48.176998 106.778999
580 1 2 -0.628400 26.489000 49.442001 107.393997
581 1 3 0.248100 25.377001 50.296001 107.875999
582 1 3 0.248100 27.323999 50.210999 106.439003
583 1 3 0.248100 27.330999 49.075001 108.557999
584 1 1 -0.106000 17.362000 41.245998 96.449997
585 1 1 -0.106000 16.437000 41.445000 95.246002
586 1 1 -0.106000 15.996000 40.097000 94.667999
587 1 3 -0.159000 15.082000 40.291000 93.460999
588 1 4 0.053000 14.779000 39.300999 93.060997
589 1 4 0.053000 15.613000 40.852001 92.663002
590 1 4 0.053000 14.169000 40.852001 93.755997
591 1 4 0.053000 15.450000 39.515999 95.443001
592 1 4 0.053000 16.889000 39.514999 94.349998
593 1 4 0.053000 16.976999 42.020000 94.460999
594 1 4 0.053000 15.541000 42.023998 95.561996
595 1 4 0.053000 16.826000 40.676998 97.241997
596 1 4 0.053000 18.254999 40.662998 96.132004
597 1 4 0.053000 18.351000 43.160999 96.218002
598 1 4 0.053000 16.931999 43.181000 97.339996
599 1 4 0.053000 19.643999 41.800999 97.873001
600 1 4 0.053000 18.236000 41.839001 99.009003
601 1 4 0.053000 18.372000 44.344002 99.083000
602 1 4 0.053000 19.768999 44.298000 97.933998
603 1 4 0.053000 21.079000 42.936001 99.577003
604 1 4 0.053000 19.690001 42.998001 100.735001
605 1 4 0.053000 19.851999 45.500000 100.782997
606 1 4 0.053000 21.235001 45.431000 99.620003
607 1 4 0.053000 22.552000 44.073002 101.263000
608 1 4 0.053000 21.169001 44.148998 102.428001
609 1 4 0.053000 21.337000 46.647999 102.457001
610 1 4 0.053000 22.726000 46.569000 101.301003
611 1 4 0.053000 24.031000 45.223999 102.969002
612 1 4 0.053000 22.632999 45.298000 104.113998
613 1 4 0.053000 22.783001 47.797001 104.133003
614 1 4 0.053000 24.195999 47.722000 103.005997
615 1 4 0.053000 25.476000 46.396000 104.709999
616 1 4 0.053000 24.052000 46.459999 105.821999
617 1 4 0.053000 24.163000 48.945000 105.828003
618 1 4 0.053000 25.603001 48.883999 104.734001
619 1 4 0.053000 26.843000 47.542000 106.466003
620 1 4 0.053000 25.410000 47.598999 107.541000
621 1 4 0.053000 26.745001 48.507000 109.314003
622 1 4 0.053000 27.742001 49.979000 109.060997
623 1 4 0.053000 28.194000 48.442001 108.247002
624 1 4 0.053000 26.726999 50.590000 105.583000
625 1 4 0.053000 28.153000 49.584999 106.039001
626 1 4 0.053000 27.773001 51.103001 106.930000
627 1 4 0.053000 24.763000 50.686001 107.038002
628 1 4 0.053000 25.763000 51.186001 108.419998
629 1 4 0.053000 24.712000 49.731998 108.568001