LAMMPS data file containing the original structures and the polarizable gold

19866 atoms
15938 bonds
24420 angles
34830 dihedrals
0 impropers

7 atom types
7 bond types
13 angle types
15 dihedral types

-48.779053 106.399948 xlo xhi
-3.000000 64.952606 ylo yhi
-3.000000 96.387703 zlo zhi

Masses

1 12.011150
2 14.006700
3 12.011150
4 1.007970
5 79.908997
6 195.960007
7 1.000000

Atoms

1 1 1 -0.106000 35.714001 16.886999 32.299999
2 1 1 -0.106000 36.355999 17.261000 30.962999
3 1 1 -0.106000 37.318001 16.166000 30.496000
4 1 1 -0.106000 37.980000 16.554001 29.171000
5 1 1 -0.106000 38.964001 15.473000 28.716999
6 1 1 -0.106000 39.632000 15.866000 27.398001
7 1 1 -0.106000 40.622002 14.789000 26.951000
8 1 1 -0.106000 41.282001 15.171000 25.625000
9 1 1 -0.106000 42.257999 14.082000 25.174999
10 1 1 -0.106000 42.898998 14.440000 23.830999
11 1 1 -0.106000 43.854000 13.331000 23.375999
12 1 1 0.301100 44.474998 13.673000 22.004000
13 1 2 -0.628400 45.417000 12.650000 21.452000
14 1 3 0.248100 44.742001 11.346000 21.247000
15 1 3 0.248100 46.592999 12.465000 22.337000
16 1 3 0.248100 45.896999 13.137000 20.136999
17 1 1 -0.106000 34.777000 17.997000 32.785999
18 1 1 -0.106000 34.153000 17.632999 34.136002
19 1 1 -0.106000 33.231998 18.752001 34.631001
20 1 3 -0.159000 32.617001 18.396999 35.981998
21 1 4 0.053000 31.957001 19.223000 36.319000
22 1 4 0.053000 33.415001 18.246000 36.740002
23 1 4 0.053000 32.012001 17.468000 35.897999
24 1 4 0.053000 32.415001 18.917999 33.896000
25 1 4 0.053000 33.811001 19.694000 34.738998
26 1 4 0.053000 34.964001 17.471001 34.881001
27 1 4 0.053000 33.570000 16.691999 34.029999
28 1 4 0.053000 33.972000 18.155001 32.034000
29 1 4 0.053000 35.355999 18.941999 32.893002
30 1 4 0.053000 36.514999 16.731001 33.057999
31 1 4 0.053000 35.140999 15.941000 32.185001
32 1 4 0.053000 36.921001 18.212999 31.083000
33 1 4 0.053000 35.563000 17.410000 30.197001
34 1 4 0.053000 36.762001 15.212000 30.367001
35 1 4 0.053000 38.106998 16.020000 31.267000
36 1 4 0.053000 38.528000 17.513000 29.301001
37 1 4 0.053000 37.195999 16.691999 28.393000
38 1 4 0.053000 38.418999 14.511000 28.584000
39 1 4 0.053000 39.744999 15.336000 29.497999
40 1 4 0.053000 40.173000 16.830000 27.531000
41 1 4 0.053000 38.852001 15.998000 26.615999
42 1 4 0.053000 40.081001 13.825000 26.826000
43 1 4 0.053000 41.405998 14.661000 27.730000
44 1 4 0.053000 41.827999 16.132999 25.743000
45 1 4 0.053000 40.493999 15.299000 24.849001
46 1 4 0.053000 41.707001 13.121000 25.070999
47 1 4 0.053000 43.053001 13.958000 25.943001
48 1 4 0.053000 43.457001 15.397000 23.927000
49 1 4 0.053000 42.098000 14.568000 23.069000
50 1 4 0.053000 43.272999 12.388000 23.308001
51 1 4 0.053000 44.645000 13.218000 24.146000
52 1 4 0.053000 45.004002 14.651000 22.106001
53 1 4 0.053000 43.637001 13.829000 21.285000
54 1 4 0.053000 45.050999 13.279000 19.427999
55 1 4 0.053000 46.606998 12.415000 19.672001
56 1 4 0.053000 46.426998 14.112000 20.237000
57 1 4 0.053000 46.306999 12.017000 23.313000
58 1 4 0.053000 47.104000 13.434000 22.531000
59 1 4 0.053000 47.332001 11.771000 21.878000
60 1 4 0.053000 44.444000 10.880000 22.209000
61 1 4 0.053000 45.419998 10.620000 20.745001
62 1 4 0.053000 43.834000 11.462000 20.614000
63 1 5 -1.000000 45.620998 10.811000 22.209999
64 1 1 -0.106000 55.657001 18.834999 50.942001
65 1 1 -0.106000 55.577000 17.327999 50.688000
66 1 1 -0.106000 55.511002 16.556999 52.009998
67 1 1 -0.106000 55.458000 15.048000 51.755001
68 1 1 -0.106000 55.421001 14.276000 53.075001
69 1 1 -0.106000 55.377998 12.767000 52.820999
70 1 1 -0.106000 55.351002 11.996000 54.140999
71 1 1 -0.106000 55.292999 10.488000 53.890999
72 1 1 -0.106000 55.249001 9.722000 55.216000
73 1 1 -0.106000 55.157001 8.213000 54.974998
74 1 1 -0.106000 55.085999 7.458000 56.306999
75 1 1 0.301100 54.958000 5.937000 56.067001
76 1 2 -0.628400 54.866001 5.098000 57.301998
77 1 3 0.248100 53.676998 5.455000 58.112999
78 1 3 0.248100 56.088001 5.224000 58.132999
79 1 3 0.248100 54.734001 3.683000 56.881001
80 1 1 -0.106000 55.757999 19.606001 49.622002
81 1 1 -0.106000 55.862000 21.112000 49.875999
82 1 1 -0.106000 55.983002 21.882000 48.556999
83 1 3 -0.159000 56.098000 23.382999 48.807999
84 1 4 0.053000 56.187000 23.916000 47.838001
85 1 4 0.053000 56.999001 23.601999 49.418999
86 1 4 0.053000 55.195999 23.754999 49.339001
87 1 4 0.053000 55.087002 21.688999 47.926998
88 1 4 0.053000 56.886002 21.541000 48.006001
89 1 4 0.053000 56.759998 21.315001 50.500999
90 1 4 0.053000 54.958000 21.455999 50.424999
91 1 4 0.053000 54.858002 19.395000 49.001999
92 1 4 0.053000 56.660999 19.264999 49.068001
93 1 4 0.053000 56.557999 19.052999 51.558998
94 1 4 0.053000 54.752998 19.166000 51.498001
95 1 4 0.053000 56.480000 17.004000 50.124001
96 1 4 0.053000 54.674000 17.100000 50.080002
97 1 4 0.053000 54.606998 16.870001 52.577999
98 1 4 0.053000 56.415001 16.792000 52.615002
99 1 4 0.053000 56.358002 14.741000 51.179001
100 1 4 0.053000 54.549999 14.807000 51.158001
101 1 4 0.053000 54.521000 14.579000 53.655998
102 1 4 0.053000 56.328999 14.522000 53.669998
103 1 4 0.053000 56.277000 12.465000 52.237000
104 1 4 0.053000 54.467999 12.521000 52.230000
105 1 4 0.053000 54.456001 12.304000 54.726002
106 1 4 0.053000 56.263000 12.237000 54.730000
107 1 4 0.053000 56.186001 10.171000 53.308998
108 1 4 0.053000 54.379002 10.251000 53.300999
109 1 4 0.053000 54.360001 10.054000 55.796001
110 1 4 0.053000 56.166000 9.949000 55.803001
111 1 4 0.053000 56.044998 7.872000 54.400002
112 1 4 0.053000 54.241001 7.995000 54.382000
113 1 4 0.053000 54.202999 7.833000 56.863998
114 1 4 0.053000 56.006001 7.687000 56.883999
115 1 4 0.053000 55.838001 5.615000 55.460999
116 1 4 0.053000 54.051998 5.772000 55.438999
117 1 4 0.053000 53.820000 3.531000 56.263000
118 1 4 0.053000 54.660999 3.004000 57.759998
119 1 4 0.053000 55.612000 3.359000 56.277000
120 1 4 0.053000 56.195999 6.247000 58.553001
121 1 4 0.053000 57.000000 4.988000 57.542000
122 1 4 0.053000 56.051998 4.530000 59.001999
123 1 4 0.053000 53.761002 6.475000 58.542000
124 1 4 0.053000 53.560001 4.762000 58.976002
125 1 4 0.053000 52.748001 5.403000 57.501999
126 1 5 -1.000000 54.568001 5.849000 59.131001
127 1 1 -0.106000 30.308001 17.655001 21.643999
128 1 1 -0.106000 29.120001 17.351000 22.559000
129 1 1 -0.106000 29.100000 15.871000 22.950001
130 1 1 -0.106000 27.896000 15.562000 23.844000
131 1 1 -0.106000 27.858999 14.077000 24.211000
132 1 1 -0.106000 26.650000 13.768000 25.097000
133 1 1 -0.106000 26.608000 12.281000 25.455999
134 1 1 -0.106000 25.409000 11.970000 26.354000
135 1 1 -0.106000 25.382999 10.485000 26.723000
136 1 1 -0.106000 24.205000 10.170000 27.649000
137 1 1 -0.106000 24.202999 8.686000 28.034000
138 1 1 0.301100 23.035000 8.373000 28.996000
139 1 2 -0.628400 22.943001 6.951000 29.452000
140 1 3 0.248100 24.162001 6.538000 30.188999
141 1 3 0.248100 22.719999 6.031000 28.311001
142 1 3 0.248100 21.785999 6.843000 30.371000
143 1 1 -0.106000 30.309999 19.129000 21.224001
144 1 1 -0.106000 31.485001 19.427999 20.289000
145 1 1 -0.106000 31.476999 20.896000 19.853001
146 1 3 -0.159000 32.640999 21.195000 18.912001
147 1 4 0.053000 32.609001 22.261999 18.610001
148 1 4 0.053000 32.569000 20.563999 18.000000
149 1 4 0.053000 33.608002 20.995001 19.420000
150 1 4 0.053000 31.558001 21.552999 20.746000
151 1 4 0.053000 30.524000 21.125000 19.327999
152 1 4 0.053000 31.409000 18.778999 19.388000
153 1 4 0.053000 32.439999 19.202000 20.813000
154 1 4 0.053000 30.384001 19.770000 22.131001
155 1 4 0.053000 29.357000 19.360001 20.698999
156 1 4 0.053000 30.239000 17.018999 20.733000
157 1 4 0.053000 31.256001 17.417999 22.174999
158 1 4 0.053000 28.176001 17.598000 22.025000
159 1 4 0.053000 29.188000 17.976000 23.476999
160 1 4 0.053000 30.039000 15.616000 23.490000
161 1 4 0.053000 29.037001 15.251000 22.028000
162 1 4 0.053000 26.961000 15.827000 23.304001
163 1 4 0.053000 27.959999 16.173000 24.771999
164 1 4 0.053000 28.792999 13.808000 24.753000
165 1 4 0.053000 27.797001 13.470000 23.281000
166 1 4 0.053000 25.716000 14.041000 24.556000
167 1 4 0.053000 26.714001 14.371000 26.030001
168 1 4 0.053000 27.545000 12.009000 25.990000
169 1 4 0.053000 26.538000 11.677000 24.524000
170 1 4 0.053000 24.468000 12.238000 25.825001
171 1 4 0.053000 25.483000 12.577000 27.283001
172 1 4 0.053000 26.332001 10.223000 27.239000
173 1 4 0.053000 25.299000 9.876000 25.795000
174 1 4 0.053000 23.250000 10.424000 27.136999
175 1 4 0.053000 24.292000 10.787000 28.570000
176 1 4 0.053000 25.173000 8.462000 28.523001
177 1 4 0.053000 24.115000 8.088000 27.104000
178 1 4 0.053000 22.087999 8.663000 28.483000
179 1 4 0.053000 23.143000 9.040000 29.882999
180 1 4 0.053000 21.912001 7.507000 31.256001
181 1 4 0.053000 21.663000 5.802000 30.747000
182 1 4 0.053000 20.837999 7.130000 29.861000
183 1 4 0.053000 23.594999 6.001000 27.628000
184 1 4 0.053000 21.825001 6.334000 27.722000
185 1 4 0.053000 22.562000 4.988000 28.665001
186 1 4 0.053000 25.052999 6.504000 29.527000
187 1 4 0.053000 24.047001 5.515000 30.610001
188 1 4 0.053000 24.375000 7.235000 31.031000
189 1 5 -1.000000 24.389000 5.600000 29.160999
190 1 1 -0.106000 31.797001 30.775999 53.070000
191 1 1 -0.106000 30.509001 30.877001 52.250000
192 1 1 -0.106000 29.452000 31.697001 52.995998
193 1 1 -0.106000 28.155001 31.773001 52.187000
194 1 1 -0.106000 27.089001 32.568001 52.944000
195 1 1 -0.106000 25.789000 32.637001 52.139000
196 1 1 -0.106000 24.721001 33.423000 52.901001
197 1 1 -0.106000 23.424999 33.506001 52.092999
198 1 1 -0.106000 22.365999 34.307999 52.854000
199 1 1 -0.106000 21.075001 34.425999 52.039001
200 1 1 -0.106000 20.031000 35.252998 52.797001
201 1 1 0.301100 18.740000 35.403000 51.962002
202 1 2 -0.628400 17.653000 36.208000 52.599998
203 1 3 0.248100 18.093000 37.598000 52.868000
204 1 3 0.248100 17.188000 35.584000 53.862000
205 1 3 0.248100 16.510000 36.256001 51.655998
206 1 1 -0.106000 32.842999 29.927999 52.340000
207 1 1 -0.106000 34.124001 29.806999 53.171001
208 1 1 -0.106000 35.162998 28.941999 52.451000
209 1 3 -0.159000 36.437000 28.811001 53.282001
210 1 4 0.053000 37.171001 28.179001 52.740002
211 1 4 0.053000 36.209999 28.336000 54.259998
212 1 4 0.053000 36.887001 29.812000 53.456001
213 1 4 0.053000 35.417999 29.400000 51.471001
214 1 4 0.053000 34.745998 27.927000 52.272999
215 1 4 0.053000 33.880001 29.344000 54.153000
216 1 4 0.053000 34.543999 30.820999 53.348000
217 1 4 0.053000 33.078999 30.396999 51.359001
218 1 4 0.053000 32.426998 28.910999 52.160000
219 1 4 0.053000 31.569000 30.305000 54.051998
220 1 4 0.053000 32.203999 31.796000 53.248001
221 1 4 0.053000 30.111000 29.853001 52.068001
222 1 4 0.053000 30.726999 31.356001 51.271000
223 1 4 0.053000 29.837999 32.723999 53.176998
224 1 4 0.053000 29.240999 31.214001 53.977001
225 1 4 0.053000 27.777000 30.743999 52.000000
226 1 4 0.053000 28.358999 32.264000 51.209000
227 1 4 0.053000 27.462000 33.599998 53.132999
228 1 4 0.053000 26.889999 32.076000 53.922001
229 1 4 0.053000 25.417999 31.604000 51.948002
230 1 4 0.053000 25.987000 33.132999 51.162998
231 1 4 0.053000 25.096001 34.452000 53.098000
232 1 4 0.053000 24.518000 32.924000 53.875000
233 1 4 0.053000 23.041000 32.480999 51.895000
234 1 4 0.053000 23.632999 34.005001 51.120998
235 1 4 0.053000 22.761000 35.327000 53.058998
236 1 4 0.053000 22.148001 33.806999 53.823002
237 1 4 0.053000 20.670000 33.410999 51.834000
238 1 4 0.053000 21.302000 34.923000 51.069000
239 1 4 0.053000 20.472000 36.250999 53.001999
240 1 4 0.053000 19.818001 34.743000 53.758999
241 1 4 0.053000 18.363001 34.376999 51.736000
242 1 4 0.053000 19.021999 35.868000 50.988998
243 1 4 0.053000 16.804001 36.730999 50.693001
244 1 4 0.053000 15.663000 36.844002 52.076000
245 1 4 0.053000 16.131001 35.233002 51.431000
246 1 4 0.053000 17.978001 35.597000 54.643002
247 1 4 0.053000 16.877001 34.528000 53.695999
248 1 4 0.053000 16.319000 36.137001 54.284000
249 1 4 0.053000 18.885000 37.637001 53.644001
250 1 4 0.053000 17.250999 38.216999 53.250000
251 1 4 0.053000 18.481001 38.078999 51.943001
252 1 5 -1.000000 17.917000 37.321999 54.238998
253 1 1 -0.106000 16.601999 12.284000 43.306000
254 1 1 -0.106000 16.687000 11.377000 44.535999
255 1 1 -0.106000 18.142000 11.193000 44.974998
256 1 1 -0.106000 18.228001 10.264000 46.188999
257 1 1 -0.106000 19.684000 10.055000 46.611000
258 1 1 -0.106000 19.770000 9.119000 47.819000
259 1 1 -0.106000 21.226999 8.904000 48.234001
260 1 1 -0.106000 21.316000 7.980000 49.450001
261 1 1 -0.106000 22.775000 7.783000 49.870998
262 1 1 -0.106000 22.872999 6.886000 51.108002
263 1 1 -0.106000 24.334999 6.716000 51.536999
264 1 1 0.301100 24.433001 5.840000 52.806000
265 1 2 -0.628400 25.818001 5.618000 53.326000
266 1 3 0.248100 26.469999 6.898000 53.698002
267 1 3 0.248100 26.660000 4.904000 52.334999
268 1 3 0.248100 25.716999 4.778000 54.542999
269 1 1 -0.106000 15.150000 12.442000 42.844002
270 1 1 -0.106000 15.067000 13.330000 41.598999
271 1 1 -0.106000 13.617000 13.473000 41.125999
272 1 3 -0.159000 13.532000 14.348000 39.877998
273 1 4 0.053000 12.474000 14.433000 39.555000
274 1 4 0.053000 14.122000 13.898000 39.051998
275 1 4 0.053000 13.922000 15.365000 40.095001
276 1 4 0.053000 13.003000 13.931000 41.931000
277 1 4 0.053000 13.201000 12.470000 40.887001
278 1 4 0.053000 15.674000 12.875000 40.785999
279 1 4 0.053000 15.480000 14.335000 41.835999
280 1 4 0.053000 14.549000 12.895000 43.665001
281 1 4 0.053000 14.731000 11.439000 42.605999
282 1 4 0.053000 17.198000 11.835000 42.480000
283 1 4 0.053000 17.025000 13.283000 43.550999
284 1 4 0.053000 16.254999 10.383000 44.285999
285 1 4 0.053000 16.101999 11.824000 45.368999
286 1 4 0.053000 18.582001 12.182000 45.233002
287 1 4 0.053000 18.724001 10.749000 44.136002
288 1 4 0.053000 17.781000 9.280000 45.930000
289 1 4 0.053000 17.657000 10.708000 47.035000
290 1 4 0.053000 20.136999 11.038000 46.872002
291 1 4 0.053000 20.253000 9.614000 45.763000
292 1 4 0.053000 19.313999 8.138000 47.557999
293 1 4 0.053000 19.205999 9.563000 48.667999
294 1 4 0.053000 21.683001 9.887000 48.487000
295 1 4 0.053000 21.791000 8.455000 47.387001
296 1 4 0.053000 20.865000 6.994000 49.203999
297 1 4 0.053000 20.750000 8.433000 50.293999
298 1 4 0.053000 23.222000 8.774000 50.103001
299 1 4 0.053000 23.341999 7.321000 49.032001
300 1 4 0.053000 22.431999 5.890000 50.882999
301 1 4 0.053000 22.299000 7.351000 51.939999
302 1 4 0.053000 24.749001 7.726000 51.736000
303 1 4 0.053000 24.889999 6.251000 50.696999
304 1 4 0.053000 23.959000 4.857000 52.576000
305 1 4 0.053000 23.815001 6.324000 53.597000
306 1 4 0.053000 25.105000 5.277000 55.327000
307 1 4 0.053000 26.721001 4.575000 54.980000
308 1 4 0.053000 25.245001 3.795000 54.314999
309 1 4 0.053000 26.846001 5.522000 51.431000
310 1 4 0.053000 26.181000 3.951000 52.016998
311 1 4 0.053000 27.659000 4.662000 52.762001
312 1 4 0.053000 26.664000 7.535000 52.810001
313 1 4 0.053000 27.459000 6.718000 54.174999
314 1 4 0.053000 25.841000 7.472000 54.414001
315 1 5 -1.000000 27.417000 6.636000 52.687000
316 1 1 -0.106000 42.599998 25.142000 24.916000
317 1 1 -0.106000 42.299000 26.642000 24.865999
318 1 1 -0.106000 43.575001 27.459999 25.084000
319 1 1 -0.106000 43.268002 28.959999 25.061001
320 1 1 -0.106000 44.536999 29.777000 25.308001
321 1 1 -0.106000 44.228001 31.275999 25.294001
322 1 1 -0.106000 45.495998 32.091999 25.551001
323 1 1 -0.106000 45.194000 33.591999 25.523001
324 1 1 -0.106000 46.470001 34.403000 25.763000
325 1 1 -0.106000 46.183998 35.905998 25.704000
326 1 1 -0.106000 47.472000 36.709000 25.919001
327 1 1 0.301100 47.192001 38.226002 25.825001
328 1 2 -0.628400 48.384998 39.111000 26.006001
329 1 3 0.248100 49.415001 38.851002 24.971001
330 1 3 0.248100 48.984001 38.943001 27.351999
331 1 3 0.248100 47.932999 40.515999 25.868999
332 1 1 -0.106000 41.319000 24.322001 24.731001
333 1 1 -0.106000 41.616001 22.822001 24.805000
334 1 1 -0.106000 40.333000 22.002001 24.641001
335 1 3 -0.159000 40.624001 20.506001 24.725000
336 1 4 0.053000 39.679001 19.936001 24.606001
337 1 4 0.053000 41.069000 20.256001 25.712000
338 1 4 0.053000 41.327000 20.205000 23.920000
339 1 4 0.053000 39.868999 22.224001 23.655001
340 1 4 0.053000 39.611000 22.271999 25.441999
341 1 4 0.053000 42.074001 22.589001 25.792000
342 1 4 0.053000 42.334999 22.549000 24.002001
343 1 4 0.053000 40.865002 24.563000 23.743999
344 1 4 0.053000 40.595001 24.591999 25.533001
345 1 4 0.053000 43.049999 24.893000 25.903000
346 1 4 0.053000 43.326000 24.882000 24.114000
347 1 4 0.053000 41.566002 26.893000 25.664000
348 1 4 0.053000 41.856998 26.900000 23.878000
349 1 4 0.053000 44.312000 27.219000 24.287001
350 1 4 0.053000 44.014000 27.194000 26.072001
351 1 4 0.053000 42.523998 29.194000 25.853001
352 1 4 0.053000 42.837002 29.232000 24.070999
353 1 4 0.053000 45.285000 29.546000 24.516001
354 1 4 0.053000 44.966000 29.500000 26.296000
355 1 4 0.053000 43.478001 31.506001 26.083000
356 1 4 0.053000 43.804001 31.554001 24.304001
357 1 4 0.053000 46.248001 31.856001 24.764999
358 1 4 0.053000 45.917999 31.819000 26.542999
359 1 4 0.053000 44.445999 33.837002 26.308001
360 1 4 0.053000 44.771999 33.860001 24.528999
361 1 4 0.053000 47.216999 34.144001 24.982000
362 1 4 0.053000 46.889000 34.144001 26.761000
363 1 4 0.053000 45.441002 36.175999 26.487000
364 1 4 0.053000 45.759998 36.155998 24.705999
365 1 4 0.053000 48.196999 36.404999 25.136999
366 1 4 0.053000 47.880001 36.448002 26.917000
367 1 4 0.053000 46.422001 38.476002 26.593000
368 1 4 0.053000 46.734001 38.422001 24.827999
369 1 4 0.053000 47.487000 40.699001 24.865999
370 1 4 0.053000 48.779999 41.227001 25.995001
371 1 4 0.053000 47.165001 40.768002 26.636000
372 1 4 0.053000 49.421001 37.930000 27.485001
373 1 4 0.053000 48.224998 39.105000 28.150000
374 1 4 0.053000 49.813000 39.667999 27.513000
375 1 4 0.053000 49.865002 37.842999 25.082001
376 1 4 0.053000 50.252998 39.577999 25.051001
377 1 4 0.053000 48.983002 38.933998 23.948999
378 1 5 -1.000000 50.269001 38.439999 26.014000
379 1 1 -0.106000 49.938000 55.421001 58.901001
380 1 1 -0.106000 48.673000 56.277000 58.805000
381 1 1 -0.106000 47.423000 55.395000 58.742001
382 1 1 -0.106000 46.160000 56.252998 58.618000
383 1 1 -0.106000 44.912998 55.370998 58.526001
384 1 1 -0.106000 43.652000 56.228001 58.393002
385 1 1 -0.106000 42.405998 55.346001 58.292000
386 1 1 -0.106000 41.141998 56.199001 58.173000
387 1 1 -0.106000 39.897999 55.311001 58.089001
388 1 1 -0.106000 38.624001 56.155998 58.004002
389 1 1 -0.106000 37.382999 55.257999 57.946999
390 1 1 0.301100 36.095001 56.109001 57.896000
391 1 2 -0.628400 34.816002 55.334999 57.853001
392 1 3 0.248100 34.658001 54.480999 59.055000
393 1 3 0.248100 34.734001 54.493000 56.634998
394 1 3 0.248100 33.696999 56.306999 57.824001
395 1 1 -0.106000 51.191002 56.300999 58.930000
396 1 1 -0.106000 52.458000 55.444000 59.001999
397 1 1 -0.106000 53.713001 56.323002 59.009998
398 1 3 -0.159000 54.978001 55.471001 59.071999
399 1 4 0.053000 55.869999 56.131001 59.074001
400 1 4 0.053000 55.032001 54.799999 58.188000
401 1 4 0.053000 54.984001 54.858002 59.998001
402 1 4 0.053000 53.691002 57.000000 59.891998
403 1 4 0.053000 53.743000 56.941002 58.087002
404 1 4 0.053000 52.492001 54.768002 58.119999
405 1 4 0.053000 52.431999 54.827000 59.926998
406 1 4 0.053000 51.147999 56.977001 59.813999
407 1 4 0.053000 51.222000 56.922001 58.006001
408 1 4 0.053000 49.988998 54.745998 58.018002
409 1 4 0.053000 49.896999 54.801998 59.825001
410 1 4 0.053000 48.723999 56.900002 57.883999
411 1 4 0.053000 48.609001 56.949001 59.688999
412 1 4 0.053000 47.360001 54.772999 59.661999
413 1 4 0.053000 47.494999 54.723000 57.858002
414 1 4 0.053000 46.230999 56.879002 57.702999
415 1 4 0.053000 46.078999 56.919998 59.506001
416 1 4 0.053000 44.837002 54.742001 59.442001
417 1 4 0.053000 44.999001 54.703999 57.639999
418 1 4 0.053000 43.729000 56.860001 57.480000
419 1 4 0.053000 43.563000 56.891998 59.282001
420 1 4 0.053000 42.334000 54.709999 59.202000
421 1 4 0.053000 42.491001 54.686001 57.400002
422 1 4 0.053000 41.205002 56.835999 57.263000
423 1 4 0.053000 41.062000 56.858002 59.066002
424 1 4 0.053000 39.848999 54.668999 58.995998
425 1 4 0.053000 39.971001 54.658001 57.191002
426 1 4 0.053000 38.661999 56.797001 57.096001
427 1 4 0.053000 38.562000 56.811001 58.901001
428 1 4 0.053000 37.384998 54.619999 58.855000
429 1 4 0.053000 37.463001 54.615002 57.047001
430 1 4 0.053000 36.161999 56.770000 57.000000
431 1 4 0.053000 36.095001 56.772999 58.792000
432 1 4 0.053000 33.705002 56.956001 58.728001
433 1 4 0.053000 32.712002 55.790001 57.790001
434 1 4 0.053000 33.761002 56.966999 56.928001
435 1 4 0.053000 35.495998 53.686001 56.639999
436 1 4 0.053000 34.876999 55.105000 55.716000
437 1 4 0.053000 33.743000 53.991001 56.563000
438 1 4 0.053000 35.411999 53.667000 59.084999
439 1 4 0.053000 33.661999 53.985001 59.064999
440 1 4 0.053000 34.751999 55.083000 59.987000
441 1 5 -1.000000 34.701000 53.367001 58.192001
442 1 1 -0.106000 55.438000 13.194000 31.858000
443 1 1 -0.106000 56.293999 13.811000 32.966999
444 1 1 -0.106000 55.410999 14.423000 34.057999
445 1 1 -0.106000 56.269001 15.064000 35.153000
446 1 1 -0.106000 55.388000 15.701000 36.229000
447 1 1 -0.106000 56.244999 16.349001 37.318001
448 1 1 -0.106000 55.363998 16.995001 38.389000
449 1 1 -0.106000 56.217999 17.632000 39.487000
450 1 1 -0.106000 55.328999 18.261000 40.563999
451 1 1 -0.106000 56.174000 18.871000 41.685001
452 1 1 -0.106000 55.276001 19.475000 42.770000
453 1 1 0.301100 56.125999 20.061001 43.919998
454 1 2 -0.628400 55.351002 20.666000 45.047001
455 1 3 0.248100 54.471001 19.666000 45.698002
456 1 3 0.248100 54.535999 21.816000 44.585999
457 1 3 0.248100 56.320999 21.157000 46.054001
458 1 1 -0.106000 56.319000 12.611000 30.749001
459 1 1 -0.106000 55.462002 12.015000 29.628000
460 1 1 -0.106000 56.341999 11.450000 28.509001
461 1 3 -0.159000 55.491001 10.865000 27.385000
462 1 4 0.053000 56.152000 10.465000 26.587999
463 1 4 0.053000 54.840000 11.651000 26.948000
464 1 4 0.053000 54.858002 10.038000 27.773001
465 1 4 0.053000 57.000000 10.651000 28.917000
466 1 4 0.053000 56.980999 12.258000 28.091000
467 1 4 0.053000 54.805000 12.809000 29.209999
468 1 4 0.053000 54.825001 11.204000 30.044001
469 1 4 0.053000 56.974998 11.820000 31.176001
470 1 4 0.053000 56.959000 13.419000 30.329000
471 1 4 0.053000 54.780998 13.981000 31.424000
472 1 4 0.053000 54.799000 12.391000 32.286999
473 1 4 0.053000 56.936001 14.608000 32.529999
474 1 4 0.053000 56.945999 13.028000 33.412998
475 1 4 0.053000 54.769001 13.632000 34.504002
476 1 4 0.053000 54.758999 15.202000 33.605000
477 1 4 0.053000 56.916000 15.847000 34.701000
478 1 4 0.053000 56.916000 14.286000 35.616001
479 1 4 0.053000 54.738998 14.920000 36.685001
480 1 4 0.053000 54.740002 16.476000 35.762001
481 1 4 0.053000 56.896999 17.128000 36.861000
482 1 4 0.053000 56.889000 15.574000 37.787998
483 1 4 0.053000 54.709000 16.216999 38.840000
484 1 4 0.053000 54.723999 17.775000 37.919998
485 1 4 0.053000 56.874001 18.413000 39.044998
486 1 4 0.053000 56.856998 16.848000 39.952000
487 1 4 0.053000 54.667999 17.476000 40.992001
488 1 4 0.053000 54.695999 19.052000 40.103001
489 1 4 0.053000 56.834999 19.662001 41.265999
490 1 4 0.053000 56.808998 18.076000 42.136002
491 1 4 0.053000 54.618000 18.667999 43.153999
492 1 4 0.053000 54.652000 20.264000 42.303001
493 1 4 0.053000 56.806000 20.827999 43.480000
494 1 4 0.053000 56.770000 19.240000 44.313000
495 1 4 0.053000 56.951000 20.326000 46.444000
496 1 4 0.053000 55.803001 21.622000 46.923000
497 1 4 0.053000 57.000999 21.924999 45.617001
498 1 4 0.053000 53.729000 21.497999 43.891998
499 1 4 0.053000 55.167000 22.572001 44.068001
500 1 4 0.053000 54.033001 22.316999 45.443001
501 1 4 0.053000 53.657001 19.330000 45.022999
502 1 4 0.053000 53.973000 20.097000 46.596001
503 1 4 0.053000 55.051998 18.774000 46.021999
504 1 5 -1.000000 53.375999 20.447001 45.276001
505 1 1 -0.106000 52.803001 16.916000 58.584999
506 1 1 -0.106000 52.702999 15.402000 58.384998
507 1 1 -0.106000 51.244999 14.940000 58.450001
508 1 1 -0.106000 51.148998 13.421000 58.277000
509 1 1 -0.106000 49.695000 12.955000 58.369999
510 1 1 -0.106000 49.601002 11.436000 58.206001
511 1 1 -0.106000 48.146999 10.970000 58.310001
512 1 1 -0.106000 48.047001 9.453000 58.132000
513 1 1 -0.106000 46.589001 8.996000 58.219002
514 1 1 -0.106000 46.474998 7.483000 58.008999
515 1 1 -0.106000 45.008999 7.039000 58.070999
516 1 1 0.301100 44.889000 5.519000 57.825001
517 1 2 -0.628400 43.495998 4.974000 57.848999
518 1 3 0.248100 42.653000 5.595000 56.799000
519 1 3 0.248100 42.860001 5.170000 59.174000
520 1 3 0.248100 43.573002 3.518000 57.581001
521 1 1 -0.106000 54.264000 17.375000 58.555000
522 1 1 -0.106000 54.365002 18.886000 58.778999
523 1 1 -0.106000 55.827000 19.344000 58.769001
524 1 3 -0.159000 55.931999 20.848000 59.001999
525 1 4 0.053000 57.000000 21.152000 58.993000
526 1 4 0.053000 55.493999 21.115999 59.987000
527 1 4 0.053000 55.396000 21.400000 58.201000
528 1 4 0.053000 56.290001 19.098000 57.787998
529 1 4 0.053000 56.389000 18.816999 59.570000
530 1 4 0.053000 53.910000 19.141001 59.761002
531 1 4 0.053000 53.806000 19.416000 57.976002
532 1 4 0.053000 54.713001 17.114000 57.570000
533 1 4 0.053000 54.828999 16.848000 59.356998
534 1 4 0.053000 52.359001 17.184000 59.570000
535 1 4 0.053000 52.234001 17.434000 57.782001
536 1 4 0.053000 53.282001 14.889000 59.186001
537 1 4 0.053000 53.136002 15.127000 57.397999
538 1 4 0.053000 50.660000 15.442000 57.647999
539 1 4 0.053000 50.816002 15.221000 59.438000
540 1 4 0.053000 51.743000 12.923000 59.074001
541 1 4 0.053000 51.568001 13.136000 57.285999
542 1 4 0.053000 49.096001 13.450000 57.573002
543 1 4 0.053000 49.278999 13.244000 59.360001
544 1 4 0.053000 50.202000 10.941000 59.001999
545 1 4 0.053000 50.012001 11.148000 57.214001
546 1 4 0.053000 47.547001 11.471000 57.518002
547 1 4 0.053000 47.737000 11.253000 59.304001
548 1 4 0.053000 48.643002 8.945000 58.921001
549 1 4 0.053000 48.459999 9.175000 57.137001
550 1 4 0.053000 45.998001 9.518000 57.435001
551 1 4 0.053000 46.176998 9.264000 59.216999
552 1 4 0.053000 47.058998 6.953000 58.792999
553 1 4 0.053000 46.895000 7.222000 57.012001
554 1 4 0.053000 44.452000 7.598000 57.292000
555 1 4 0.053000 44.609001 7.306000 59.070999
556 1 4 0.053000 45.505001 5.001000 58.598000
557 1 4 0.053000 45.354000 5.300000 56.835999
558 1 4 0.053000 44.030998 3.316000 56.587002
559 1 4 0.053000 42.562000 3.051000 57.585999
560 1 4 0.053000 44.187000 2.998000 58.352001
561 1 4 0.053000 42.694000 6.246000 59.396000
562 1 4 0.053000 43.486000 4.737000 59.986000
563 1 4 0.053000 41.861000 4.683000 59.213001
564 1 4 0.053000 42.473999 6.672000 56.997002
565 1 4 0.053000 41.648998 5.116000 56.757000
566 1 4 0.053000 43.124001 5.494000 55.796001
567 1 5 -1.000000 41.858002 6.121000 57.838001
568 1 1 -0.106000 31.787001 22.225000 44.912998
569 1 1 -0.106000 31.056000 20.886000 44.787998
570 1 1 -0.106000 31.216999 20.309999 43.377998
571 1 1 -0.106000 30.462000 18.983999 43.245998
572 1 1 -0.106000 30.597000 18.421000 41.828999
573 1 1 -0.106000 29.836000 17.101000 41.695000
574 1 1 -0.106000 29.962999 16.544001 40.276001
575 1 1 -0.106000 29.215000 15.217000 40.140999
576 1 1 -0.106000 29.361000 14.657000 38.723999
577 1 1 -0.106000 28.643999 13.311000 38.589001
578 1 1 -0.106000 28.819000 12.746000 37.174000
579 1 1 0.301100 28.125000 11.372000 37.044998
580 1 2 -0.628400 28.243000 10.717000 35.706001
581 1 3 0.248100 29.660000 10.460000 35.351002
582 1 3 0.248100 27.608000 11.536000 34.645000
583 1 3 0.248100 27.538000 9.414000 35.772999
584 1 1 -0.106000 31.599001 22.820000 46.313000
585 1 1 -0.106000 32.311001 24.170000 46.431000
586 1 1 -0.106000 32.106998 24.775000 47.824001
587 1 3 -0.159000 32.806000 26.127001 47.942001
588 1 4 0.053000 32.639999 26.542999 48.957001
589 1 4 0.053000 32.396000 26.837999 47.193001
590 1 4 0.053000 33.897999 26.011000 47.776001
591 1 4 0.053000 32.518002 24.087999 48.595001
592 1 4 0.053000 31.021000 24.916000 48.014999
593 1 4 0.053000 31.900999 24.867001 45.667000
594 1 4 0.053000 33.397999 24.032000 46.243000
595 1 4 0.053000 32.008999 22.115999 47.070999
596 1 4 0.053000 30.511999 22.961000 46.506001
597 1 4 0.053000 31.379000 22.934999 44.160000
598 1 4 0.053000 32.870998 22.075001 44.715000
599 1 4 0.053000 29.974001 21.041000 44.994999
600 1 4 0.053000 31.465000 20.167000 45.530998
601 1 4 0.053000 32.294998 20.146000 43.164001
602 1 4 0.053000 30.809000 21.035000 42.639000
603 1 4 0.053000 29.386000 19.150000 43.470001
604 1 4 0.053000 30.872000 18.252001 43.977001
605 1 4 0.053000 31.674000 18.252001 41.601002
606 1 4 0.053000 30.188999 19.157000 41.102001
607 1 4 0.053000 28.760000 17.270000 41.926998
608 1 4 0.053000 30.247000 16.364000 42.418999
609 1 4 0.053000 31.040001 16.382999 40.042999
610 1 4 0.053000 29.547001 17.278000 39.550999
611 1 4 0.053000 28.138000 15.370000 40.369999
612 1 4 0.053000 29.635000 14.486000 40.868999
613 1 4 0.053000 30.441999 14.518000 38.499001
614 1 4 0.053000 28.934000 15.381000 37.994999
615 1 4 0.053000 27.561001 13.442000 38.806000
616 1 4 0.053000 29.073000 12.595000 39.324001
617 1 4 0.053000 29.907000 12.645000 36.981998
618 1 4 0.053000 28.386000 13.472000 36.456001
619 1 4 0.053000 27.047001 11.512000 37.298000
620 1 4 0.053000 28.558001 10.702000 37.824001
621 1 4 0.053000 27.987000 8.754000 36.548000
622 1 4 0.053000 27.590000 8.875000 34.800999
623 1 4 0.053000 26.461000 9.552000 36.023998
624 1 4 0.053000 28.149000 12.493000 34.486000
625 1 4 0.053000 26.549999 11.767000 34.898998
626 1 4 0.053000 27.620001 11.002000 33.668999
627 1 4 0.053000 30.222000 11.403000 35.188999
628 1 4 0.053000 29.736000 9.884000 34.402000
629 1 4 0.053000 30.172001 9.876000 36.148998
630 1 5 -1.000000 29.485001 11.348000 34.271000
631 1 1 -0.106000 44.734001 36.902000 51.023998