LAMMPS data file containing the original structures and the polarizable gold

19740 atoms
15875 bonds
24420 angles
34830 dihedrals
0 impropers

7 atom types
7 bond types
13 angle types
15 dihedral types

-48.738258 57.056000 xlo xhi
-3.000000 57.098999 ylo yhi
-3.000000 96.678406 zlo zhi

Masses

1 12.011150
2 14.006700
3 12.011150
4 1.007970
5 79.908997
6 195.960007
7 1.000000

Atoms

1 0 1 -0.106000 16.408001 36.721001 364.996002
2 0 1 -0.106000 17.889000 37.105999 365.010986
3 0 1 -0.106000 18.176001 38.205002 363.984985
4 0 1 -0.106000 19.664000 38.570000 363.983002
5 0 1 -0.106000 19.957001 39.647999 362.937012
6 0 1 -0.106000 21.445000 40.005001 362.928986
7 0 1 -0.106000 21.738001 41.076000 361.877014
8 0 1 -0.106000 23.223000 41.446999 361.875000
9 0 1 -0.106000 23.507000 42.529999 360.832001
10 0 1 -0.106000 24.983999 42.931999 360.846008
11 0 1 -0.106000 25.253000 44.035999 359.816986
12 0 1 0.301100 26.736000 44.467999 359.854004
13 0 2 -0.628400 27.111000 45.555000 358.897003
14 0 3 0.248100 26.348000 46.799000 359.164001
15 0 3 0.248100 26.896999 45.136002 357.490997
16 0 3 0.248100 28.552999 45.846001 359.083008
17 0 1 -0.106000 16.125000 35.598000 365.997986
18 0 1 -0.106000 14.648000 35.196999 365.964996
19 0 1 -0.106000 14.369000 34.058998 366.953003
20 0 3 -0.159000 12.899000 33.650002 366.915009
21 0 4 0.053000 12.724000 32.824001 367.635986
22 0 4 0.053000 12.624000 33.299000 365.897003
23 0 4 0.053000 12.252000 34.508999 367.191986
24 0 4 0.053000 14.625000 34.386002 367.984009
25 0 4 0.053000 14.993000 33.176998 366.692993
26 0 4 0.053000 14.383000 34.861000 364.937988
27 0 4 0.053000 14.022000 36.077000 366.227997
28 0 4 0.053000 16.395000 35.939999 367.022003
29 0 4 0.053000 16.750000 34.713001 365.739990
30 0 4 0.053000 16.132000 36.375000 363.975006
31 0 4 0.053000 15.791000 37.611000 365.251007
32 0 4 0.053000 18.500999 36.209999 364.763000
33 0 4 0.053000 18.171000 37.463001 366.026001
34 0 4 0.053000 17.573000 39.108002 364.227997
35 0 4 0.053000 17.889000 37.842999 362.972992
36 0 4 0.053000 20.263000 37.662998 363.747986
37 0 4 0.053000 19.954000 38.942001 364.990997
38 0 4 0.053000 19.358999 40.557999 363.167999
39 0 4 0.053000 19.663000 39.273998 361.932007
40 0 4 0.053000 22.042000 39.094002 362.700989
41 0 4 0.053000 21.737000 40.383999 363.933014
42 0 4 0.053000 21.135000 41.984001 362.101990
43 0 4 0.053000 21.451000 40.695999 360.871002
44 0 4 0.053000 23.832001 40.544998 361.648010
45 0 4 0.053000 23.504999 41.825001 362.882996
46 0 4 0.053000 22.884001 43.424000 361.058990
47 0 4 0.053000 23.233999 42.151001 359.821991
48 0 4 0.053000 25.614000 42.044998 360.614014
49 0 4 0.053000 25.250000 43.304001 361.859985
50 0 4 0.053000 24.597000 44.896999 360.065002
51 0 4 0.053000 24.983000 43.647999 358.813995
52 0 4 0.053000 27.356001 43.563000 359.652008
53 0 4 0.053000 26.965000 44.794998 360.894012
54 0 4 0.053000 28.764999 46.180000 360.122986
55 0 4 0.053000 28.895000 46.651001 358.394989
56 0 4 0.053000 29.174000 44.944000 358.880005
57 0 4 0.053000 25.820000 44.987000 357.265015
58 0 4 0.053000 27.437000 44.188000 357.269989
59 0 4 0.053000 27.263000 45.912998 356.783997
60 0 4 0.053000 25.267000 46.674000 358.946991
61 0 4 0.053000 26.702000 47.631001 358.515015
62 0 4 0.053000 26.462000 47.117001 360.223999
63 0 5 -1.000000 25.777000 46.647999 357.884003
64 0 1 -0.106000 25.473000 18.364000 416.230988
65 0 1 -0.106000 24.636000 17.966999 415.013000
66 0 1 -0.106000 23.367001 17.226999 415.445007
67 0 1 -0.106000 22.542999 16.806000 414.223999
68 0 1 -0.106000 21.289000 16.040001 414.653015
69 0 1 -0.106000 20.472000 15.612000 413.433014
70 0 1 -0.106000 19.224001 14.839000 413.862000
71 0 1 -0.106000 18.395000 14.421000 412.644989
72 0 1 -0.106000 17.139999 13.663000 413.082001
73 0 1 -0.106000 16.287001 13.270000 411.872986
74 0 1 -0.106000 15.019000 12.535000 412.321991
75 0 1 0.301100 14.140000 12.167000 411.105988
76 0 2 -0.628400 12.864000 11.457000 411.428009
77 0 3 0.248100 11.987000 12.282000 412.294006
78 0 3 0.248100 13.122000 10.153000 412.085999
79 0 3 0.248100 12.151000 11.202000 410.153992
80 0 1 -0.106000 26.760000 19.075001 415.799988
81 0 1 -0.106000 27.608999 19.451000 417.016998
82 0 1 -0.106000 28.906000 20.143999 416.584991
83 0 3 -0.159000 29.760000 20.511000 417.795990
84 0 4 0.053000 30.691999 21.007999 417.455994
85 0 4 0.053000 30.031000 19.597000 418.365997
86 0 4 0.053000 29.205999 21.207001 418.460999
87 0 4 0.053000 28.665001 21.070999 416.019989
88 0 4 0.053000 29.490999 19.466999 415.927002
89 0 4 0.053000 27.861000 18.528999 417.585999
90 0 4 0.053000 27.027000 20.132000 417.675995
91 0 4 0.053000 26.500000 19.995001 415.229004
92 0 4 0.053000 27.347000 18.398001 415.139008
93 0 4 0.053000 25.740000 17.448999 416.804993
94 0 4 0.053000 24.878000 19.038000 416.886993
95 0 4 0.053000 25.239000 17.299999 414.358002
96 0 4 0.053000 24.357000 18.878000 414.440002
97 0 4 0.053000 22.754000 17.886999 416.096008
98 0 4 0.053000 23.652000 16.318001 416.020996
99 0 4 0.053000 23.162001 16.153000 413.571014
100 0 4 0.053000 22.247000 17.712000 413.648987
101 0 4 0.053000 20.665001 16.691000 415.306000
102 0 4 0.053000 21.589001 15.138000 415.229004
103 0 4 0.053000 21.097000 14.965000 412.777008
104 0 4 0.053000 20.167999 16.514999 412.859009
105 0 4 0.053000 18.603001 15.485000 414.522003
106 0 4 0.053000 19.527000 13.932000 414.429993
107 0 4 0.053000 19.007999 13.772000 411.980988
108 0 4 0.053000 18.094999 15.331000 412.079010
109 0 4 0.053000 16.539000 14.313000 413.755005
110 0 4 0.053000 17.437000 12.747000 413.640015
111 0 4 0.053000 16.878000 12.613000 411.196991
112 0 4 0.053000 15.999000 14.189000 411.316986
113 0 4 0.053000 14.463000 13.206000 413.007996
114 0 4 0.053000 15.325000 11.622000 412.872986
115 0 4 0.053000 14.756000 11.537000 410.421997
116 0 4 0.053000 13.909000 13.112000 410.561005
117 0 4 0.053000 11.920000 12.154000 409.625000
118 0 4 0.053000 11.188000 10.672000 410.326996
119 0 4 0.053000 12.764000 10.571000 409.468994
120 0 4 0.053000 13.578000 10.282000 413.091003
121 0 4 0.053000 13.801000 9.522000 411.470001
122 0 4 0.053000 12.175000 9.590000 412.239990
123 0 4 0.053000 12.423000 12.427000 413.303986
124 0 4 0.053000 11.000000 11.790000 412.447998
125 0 4 0.053000 11.806000 13.282000 411.839996
126 0 5 -1.000000 12.129000 11.285000 413.281006
127 0 1 -0.106000 46.505001 21.167999 473.014008
128 0 1 -0.106000 47.930000 21.688000 473.210999
129 0 1 -0.106000 47.917000 23.131001 473.723999
130 0 1 -0.106000 49.344002 23.658001 473.894989
131 0 1 -0.106000 49.332001 25.108999 474.380005
132 0 1 -0.106000 50.757999 25.639000 474.541992
133 0 1 -0.106000 50.744999 27.093000 475.018005
134 0 1 -0.106000 52.169998 27.622000 475.195007
135 0 1 -0.106000 52.148998 29.070999 475.687012
136 0 1 -0.106000 53.570000 29.599001 475.899994
137 0 1 -0.106000 53.539001 31.042000 476.417999
138 0 1 0.301100 54.971001 31.565001 476.665985
139 0 2 -0.628400 55.062000 32.963001 477.190002
140 0 3 0.248100 54.376999 33.098000 478.498993
141 0 3 0.248100 54.488998 33.938000 476.230011
142 0 3 0.248100 56.495998 33.285000 477.380005
143 0 1 -0.106000 46.515999 19.737000 472.467987
144 0 1 -0.106000 45.090000 19.226000 472.247986
145 0 1 -0.106000 45.101002 17.802000 471.683014
146 0 3 -0.159000 43.680000 17.292999 471.451996
147 0 4 0.053000 43.716999 16.261999 471.041992
148 0 4 0.053000 43.151001 17.947001 470.727997
149 0 4 0.053000 43.117001 17.275999 472.410004
150 0 4 0.053000 45.617001 17.120001 472.394012
151 0 4 0.053000 45.647999 17.787001 470.714996
152 0 4 0.053000 44.567001 19.898001 471.532013
153 0 4 0.053000 44.542000 19.236000 473.214996
154 0 4 0.053000 47.042999 19.072001 473.187988
155 0 4 0.053000 47.063999 19.721001 471.498993
156 0 4 0.053000 45.973000 21.827999 472.290985
157 0 4 0.053000 45.964001 21.191000 473.984985
158 0 4 0.053000 48.469002 21.653999 472.237000
159 0 4 0.053000 48.466000 21.040001 473.938995
160 0 4 0.053000 47.386002 23.173000 474.700989
161 0 4 0.053000 47.376999 23.773001 472.993011
162 0 4 0.053000 49.874001 23.606001 472.919006
163 0 4 0.053000 49.886002 23.025000 474.632996
164 0 4 0.053000 48.803001 25.167000 475.358002
165 0 4 0.053000 48.787998 25.739000 473.641998
166 0 4 0.053000 51.287998 25.577999 473.565002
167 0 4 0.053000 51.300999 25.013000 475.283997
168 0 4 0.053000 50.209000 27.153999 475.990997
169 0 4 0.053000 50.208000 27.721001 474.273987
170 0 4 0.053000 52.710999 27.568001 474.226013
171 0 4 0.053000 52.702999 26.990000 475.938995
172 0 4 0.053000 51.595001 29.118999 476.651001
173 0 4 0.053000 51.625000 29.708000 474.940002
174 0 4 0.053000 54.130001 29.561001 474.938995
175 0 4 0.053000 54.090000 28.955000 476.643005
176 0 4 0.053000 52.959000 31.049000 477.364014
177 0 4 0.053000 53.018002 31.669001 475.665009
178 0 4 0.053000 55.529999 31.489000 475.704010
179 0 4 0.053000 55.463001 30.868999 477.385010
180 0 4 0.053000 56.971001 32.588001 478.105988
181 0 4 0.053000 56.631001 34.319000 477.769989
182 0 4 0.053000 57.056000 33.212002 476.420013
183 0 4 0.053000 53.393002 33.803001 476.110992
184 0 4 0.053000 54.966000 33.840000 475.229004
185 0 4 0.053000 54.640999 34.981998 476.584015
186 0 4 0.053000 53.278999 32.965000 478.406006
187 0 4 0.053000 54.533001 34.112000 478.928009
188 0 4 0.053000 54.763000 32.352001 479.229004
189 0 5 -1.000000 53.488998 33.993999 477.871002
190 0 1 -0.106000 18.260000 15.967000 97.662003
191 0 1 -0.106000 16.927000 16.715000 97.596001
192 0 1 -0.106000 17.077999 18.143000 98.125999
193 0 1 -0.106000 15.736000 18.881001 98.084999
194 0 1 -0.106000 15.880000 20.299000 98.641998
195 0 1 -0.106000 14.538000 21.034000 98.609001
196 0 1 -0.106000 14.680000 22.447001 99.175003
197 0 1 -0.106000 13.343000 23.190001 99.129997
198 0 1 -0.106000 13.496000 24.610001 99.681999
199 0 1 -0.106000 12.171000 25.372999 99.610001
200 0 1 -0.106000 12.341000 26.801001 100.139999
201 0 1 0.301100 11.013000 27.584000 100.036003
202 0 2 -0.628400 11.065000 29.000999 100.513000
203 0 3 0.248100 12.038000 29.801001 99.731003
204 0 3 0.248100 11.409000 29.073999 101.954002
205 0 3 0.248100 9.719000 29.593000 100.324997
206 0 1 -0.106000 18.103001 14.527000 97.164001
207 0 1 -0.106000 19.431999 13.771000 97.252998
208 0 1 -0.106000 19.271999 12.325000 96.773003
209 0 3 -0.159000 20.591999 11.566000 96.870003
210 0 4 0.053000 20.448000 10.523000 96.519997
211 0 4 0.053000 20.945999 11.543000 97.922997
212 0 4 0.053000 21.364000 12.053000 96.236000
213 0 4 0.053000 18.927999 12.317000 95.716003
214 0 4 0.053000 18.514000 11.806000 97.398003
215 0 4 0.053000 19.781000 13.769000 98.308998
216 0 4 0.053000 20.191999 14.288000 96.625000
217 0 4 0.053000 17.752001 14.538000 96.108002
218 0 4 0.053000 17.344000 14.005000 97.789001
219 0 4 0.053000 18.615999 15.949000 98.717003
220 0 4 0.053000 19.014000 16.497000 97.039001
221 0 4 0.053000 16.174999 16.176001 98.214996
222 0 4 0.053000 16.569000 16.746000 96.543999
223 0 4 0.053000 17.823000 18.691999 97.510002
224 0 4 0.053000 17.438999 18.105000 99.178001
225 0 4 0.053000 14.992000 18.325001 98.695000
226 0 4 0.053000 15.375000 18.930000 97.032997
227 0 4 0.053000 16.624001 20.862000 98.033997
228 0 4 0.053000 16.243999 20.247000 99.692001
229 0 4 0.053000 13.793000 20.469000 99.213997
230 0 4 0.053000 14.176000 21.091000 97.557999
231 0 4 0.053000 15.430000 23.007999 98.572998
232 0 4 0.053000 15.036000 22.391001 100.226997
233 0 4 0.053000 12.589000 22.638000 99.732002
234 0 4 0.053000 12.991000 23.243000 98.075996
235 0 4 0.053000 14.261000 25.150999 99.082001
236 0 4 0.053000 13.839000 24.559999 100.738998
237 0 4 0.053000 11.401000 24.841000 100.211998
238 0 4 0.053000 11.831000 25.413000 98.551003
239 0 4 0.053000 13.126000 27.297001 99.531998
240 0 4 0.053000 12.678000 26.740999 101.195000
241 0 4 0.053000 10.243000 27.021999 100.616997
242 0 4 0.053000 10.694000 27.565001 98.968002
243 0 4 0.053000 9.418000 29.575001 99.252998
244 0 4 0.053000 9.692000 30.653000 100.664001
245 0 4 0.053000 8.949000 29.035000 100.904999
246 0 4 0.053000 12.445000 28.724001 102.148003
247 0 4 0.053000 10.710000 28.459000 102.563004
248 0 4 0.053000 11.356000 30.122999 102.322998
249 0 4 0.053000 13.082000 29.468000 99.906998
250 0 4 0.053000 11.999000 30.874001 100.024002
251 0 4 0.053000 11.825000 29.733999 98.639999
252 0 5 -1.000000 12.765000 29.968000 100.926003
253 0 1 -0.106000 10.966000 28.455999 527.580017
254 0 1 -0.106000 11.277000 27.007000 527.961975
255 0 1 -0.106000 12.643000 26.908001 528.645996
256 0 1 -0.106000 12.965000 25.454000 529.004028
257 0 1 -0.106000 14.343000 25.349001 529.661011
258 0 1 -0.106000 14.669000 23.895000 530.010010
259 0 1 -0.106000 16.049999 23.790001 530.658020
260 0 1 -0.106000 16.372999 22.339001 531.021973
261 0 1 -0.106000 17.749001 22.243999 531.684998
262 0 1 -0.106000 18.068001 20.799999 532.083008
263 0 1 -0.106000 19.436001 20.719000 532.770996
264 0 1 0.301100 19.743999 19.268999 533.203979
265 0 2 -0.628400 21.052000 19.072001 533.901978
266 0 3 0.248100 21.124001 19.865000 535.153015
267 0 3 0.248100 22.193001 19.430000 533.023987
268 0 3 0.248100 21.169001 17.636999 534.254028
269 0 1 -0.106000 9.614000 28.552999 526.864990
270 0 1 -0.106000 9.314000 29.999001 526.460999
271 0 1 -0.106000 7.972000 30.094000 525.728027
272 0 3 -0.159000 7.674000 31.533001 525.314026
273 0 4 0.053000 6.700000 31.573000 524.784973
274 0 4 0.053000 8.467000 31.909000 524.632996
275 0 4 0.053000 7.621000 32.188000 526.210022
276 0 4 0.053000 7.156000 29.733999 526.390991
277 0 4 0.053000 7.997000 29.458000 524.817017
278 0 4 0.053000 10.122000 30.367001 525.791016
279 0 4 0.053000 9.284000 30.636999 527.370972
280 0 4 0.053000 8.812000 28.181000 527.539978
281 0 4 0.053000 9.638000 27.916000 525.952026
282 0 4 0.053000 11.763000 28.834000 526.901001
283 0 4 0.053000 10.947000 29.086000 528.495972
284 0 4 0.053000 11.286000 26.381001 527.041992
285 0 4 0.053000 10.490000 26.625999 528.648010
286 0 4 0.053000 12.643000 27.525999 529.570984
287 0 4 0.053000 13.426000 27.294001 527.955994
288 0 4 0.053000 12.957000 24.837999 528.078003
289 0 4 0.053000 12.190000 25.065001 529.702026
290 0 4 0.053000 14.357000 25.964001 530.588989
291 0 4 0.053000 15.115000 25.740999 528.961975
292 0 4 0.053000 14.651000 23.280001 529.081970
293 0 4 0.053000 13.900000 23.504999 530.713013
294 0 4 0.053000 16.068001 24.410999 531.581970
295 0 4 0.053000 16.820000 24.174000 529.953003
296 0 4 0.053000 16.361000 21.712999 530.103027
297 0 4 0.053000 15.600000 21.959000 531.726013
298 0 4 0.053000 17.757999 22.882999 532.594971
299 0 4 0.053000 18.525999 22.614000 530.979980
300 0 4 0.053000 18.066999 20.155001 531.177002
301 0 4 0.053000 17.284000 20.434999 532.783020
302 0 4 0.053000 19.410000 21.386000 533.656982
303 0 4 0.053000 20.202999 21.086000 532.059021
304 0 4 0.053000 19.707001 18.628000 532.291992
305 0 4 0.053000 18.916000 18.934000 533.870972
306 0 4 0.053000 20.340000 17.320000 534.927002
307 0 4 0.053000 22.127001 17.424999 534.778015
308 0 4 0.053000 21.134001 16.995001 533.343994
309 0 4 0.053000 22.211000 20.517000 532.794983
310 0 4 0.053000 22.149000 18.868999 532.064026
311 0 4 0.053000 23.163000 19.195999 533.515015
312 0 4 0.053000 21.141001 20.955999 534.950012
313 0 4 0.053000 22.056999 19.638000 535.716980
314 0 4 0.053000 20.259001 19.642000 535.817017
315 0 5 -1.000000 22.190001 20.577000 534.567017
316 0 1 -0.106000 23.989000 51.568001 457.036987
317 0 1 -0.106000 25.434999 51.673000 457.528015
318 0 1 -0.106000 26.413000 51.636002 456.351013
319 0 1 -0.106000 27.860001 51.714001 456.846985
320 0 1 -0.106000 28.840000 51.647999 455.673004
321 0 1 -0.106000 30.285999 51.716000 456.169006
322 0 1 -0.106000 31.264999 51.639999 454.996002
323 0 1 -0.106000 32.712002 51.723000 455.487000
324 0 1 -0.106000 33.685001 51.662998 454.308014
325 0 1 -0.106000 35.134998 51.778999 454.786011
326 0 1 -0.106000 36.101002 51.744999 453.596008
327 0 1 0.301100 37.562000 51.896999 454.072998
328 0 2 -0.628400 38.594002 51.893002 452.989990
329 0 3 0.248100 38.388000 53.012001 452.040009
330 0 3 0.248100 38.594002 50.608002 452.247986
331 0 3 0.248100 39.922001 52.063000 453.627014
332 0 1 -0.106000 23.011000 51.570999 458.214996
333 0 1 -0.106000 21.566000 51.442001 457.723999
334 0 1 -0.106000 20.587999 51.424999 458.903015
335 0 3 -0.159000 19.148001 51.285000 458.417999
336 0 4 0.053000 18.461000 51.272999 459.290009
337 0 4 0.053000 19.023001 50.337002 457.851990
338 0 4 0.053000 18.878000 52.139999 457.763000
339 0 4 0.053000 20.683001 52.368000 459.483002
340 0 4 0.053000 20.823999 50.569000 459.572998
341 0 4 0.053000 21.459000 50.497002 457.148010
342 0 4 0.053000 21.326000 52.298000 457.057007
343 0 4 0.053000 23.125999 52.519001 458.787994
344 0 4 0.053000 23.246000 50.716000 458.886993
345 0 4 0.053000 23.867001 50.620998 456.464996
346 0 4 0.053000 23.764000 52.424999 456.363007
347 0 4 0.053000 25.652000 50.819000 458.208008
348 0 4 0.053000 25.568001 52.623001 458.092010
349 0 4 0.053000 26.208000 52.491001 455.669006
350 0 4 0.053000 26.271999 50.686001 455.789001
351 0 4 0.053000 28.059000 50.863998 457.535004
352 0 4 0.053000 28.009001 52.667999 457.401001
353 0 4 0.053000 28.646000 52.498001 454.980988
354 0 4 0.053000 28.687000 50.695000 455.119995
355 0 4 0.053000 30.479000 50.868000 456.864014
356 0 4 0.053000 30.441000 52.671001 456.717987
357 0 4 0.053000 31.066000 52.485001 454.299988
358 0 4 0.053000 31.115000 50.682999 454.450012
359 0 4 0.053000 32.918999 50.880001 456.182007
360 0 4 0.053000 32.856998 52.681000 456.033997
361 0 4 0.053000 33.463001 52.501999 453.612000
362 0 4 0.053000 33.549000 50.701000 453.765015
363 0 4 0.053000 35.368000 50.939999 455.477997
364 0 4 0.053000 35.262001 52.740002 455.332001
365 0 4 0.053000 35.831001 52.580002 452.915985
366 0 4 0.053000 35.960999 50.782001 453.063995
367 0 4 0.053000 37.771000 51.069000 454.790985
368 0 4 0.053000 37.631001 52.851002 454.644989
369 0 4 0.053000 39.979000 53.022999 454.187012
370 0 4 0.053000 40.737000 52.067001 452.868988
371 0 4 0.053000 40.132999 51.236000 454.343994
372 0 4 0.053000 37.653999 50.464001 451.674988
373 0 4 0.053000 38.720001 49.747002 452.941986
374 0 4 0.053000 39.423000 50.577000 451.506012
375 0 4 0.053000 37.452000 52.890999 451.455994
376 0 4 0.053000 39.215000 53.063000 451.295990
377 0 4 0.053000 38.347000 53.987999 452.575012
378 0 5 -1.000000 38.158001 52.042000 451.044006
379 0 1 -0.106000 34.643002 53.134998 210.503998
380 0 1 -0.106000 34.080002 51.972000 209.682999
381 0 1 -0.106000 32.584000 51.790001 209.953995
382 0 1 -0.106000 32.028000 50.610001 209.153000
383 0 1 -0.106000 30.539000 50.408001 209.445999
384 0 1 -0.106000 29.986000 49.223000 208.653000
385 0 1 -0.106000 28.500999 49.015999 208.953003
386 0 1 -0.106000 27.940001 47.841000 208.151001
387 0 1 -0.106000 26.448999 47.650002 208.442993
388 0 1 -0.106000 25.871000 46.497002 207.619003
389 0 1 -0.106000 24.372999 46.332001 207.899002
390 0 1 0.301100 23.780001 45.191002 207.042999
391 0 2 -0.628400 22.315001 44.949001 207.223007
392 0 3 0.248100 21.518000 46.146000 206.862000
393 0 3 0.248100 22.000999 44.547001 208.615997
394 0 3 0.248100 21.923000 43.841000 206.320007
395 0 1 -0.106000 36.146999 53.297001 210.259003
396 0 1 -0.106000 36.715000 54.445000 211.098007
397 0 1 -0.106000 38.223000 54.595001 210.869003
398 0 3 -0.159000 38.793999 55.730999 211.712006
399 0 4 0.053000 39.886002 55.817001 211.529999
400 0 4 0.053000 38.627998 55.529999 212.792007
401 0 4 0.053000 38.310001 56.693001 211.440994
402 0 4 0.053000 38.419998 54.807999 209.796005
403 0 4 0.053000 38.738998 53.650002 211.145004
404 0 4 0.053000 36.528999 54.237000 212.175003
405 0 4 0.053000 36.202999 55.391998 210.820999
406 0 4 0.053000 36.325001 53.501999 209.179001
407 0 4 0.053000 36.665001 52.351002 210.533997
408 0 4 0.053000 34.472000 52.935001 211.585007
409 0 4 0.053000 34.118000 54.075001 210.225006
410 0 4 0.053000 34.616001 51.036999 209.960007
411 0 4 0.053000 34.238998 52.169998 208.600006
412 0 4 0.053000 32.039001 52.717999 209.675003
413 0 4 0.053000 32.431000 51.597000 211.039993
414 0 4 0.053000 32.581001 49.686001 209.429993
415 0 4 0.053000 32.169998 50.801998 208.065994
416 0 4 0.053000 29.981001 51.331001 209.169998
417 0 4 0.053000 30.402000 50.219002 210.533997
418 0 4 0.053000 30.547001 48.300999 208.925995
419 0 4 0.053000 30.120001 49.415001 207.565002
420 0 4 0.053000 27.941999 49.941002 208.686005
421 0 4 0.053000 28.365999 48.819000 210.039993
422 0 4 0.053000 28.490999 46.911999 208.414001
423 0 4 0.053000 28.077000 48.042000 207.065002
424 0 4 0.053000 25.907000 48.588001 208.188004
425 0 4 0.053000 26.309999 47.438999 209.526993
426 0 4 0.053000 26.403999 45.554001 207.871994
427 0 4 0.053000 26.018999 46.713001 206.537994
428 0 4 0.053000 23.874001 47.292999 207.654999
429 0 4 0.053000 24.243999 46.117001 208.979996
430 0 4 0.053000 24.344999 44.258999 207.281998
431 0 4 0.053000 23.985001 45.431999 205.973999
432 0 4 0.053000 22.125000 44.098999 205.255997
433 0 4 0.053000 20.837000 43.611000 206.408005
434 0 4 0.053000 22.483999 42.908001 206.557999
435 0 4 0.053000 22.191999 45.372002 209.335007
436 0 4 0.053000 22.606001 43.665001 208.923004
437 0 4 0.053000 20.924999 44.279999 208.720993
438 0 4 0.053000 21.694000 46.986000 207.565994
439 0 4 0.053000 20.427000 45.928001 206.904007
440 0 4 0.053000 21.761000 46.492001 205.832993
441 0 5 -1.000000 21.099001 46.195000 208.207001
442 0 1 -0.106000 32.403999 36.773998 360.507996
443 0 1 -0.106000 33.865002 36.320999 360.548004
444 0 1 -0.106000 34.800999 37.471001 360.164001
445 0 1 -0.106000 36.261002 37.008999 360.178009
446 0 1 -0.106000 37.194000 38.150002 359.765991
447 0 1 -0.106000 38.652000 37.685001 359.770996
448 0 1 -0.106000 39.584000 38.823002 359.350006
449 0 1 -0.106000 41.044998 38.367001 359.368011
450 0 1 -0.106000 41.973000 39.514999 358.962006
451 0 1 -0.106000 43.438999 39.077999 359.009003
452 0 1 -0.106000 44.362000 40.241001 358.627014
453 0 1 0.301100 45.842999 39.812000 358.707001
454 0 2 -0.628400 46.839001 40.876999 358.368988
455 0 3 0.248100 46.729000 42.034000 359.289001
456 0 3 0.248100 46.678001 41.341000 356.968994
457 0 3 0.248100 48.194000 40.293999 358.514008
458 0 1 -0.106000 31.464001 35.616001 360.859009
459 0 1 -0.106000 30.000999 36.062000 360.795990
460 0 1 -0.106000 29.059999 34.900002 361.127014
461 0 3 -0.159000 27.600000 35.339001 361.054993
462 0 4 0.053000 26.941000 34.479000 361.295990
463 0 4 0.053000 27.357000 35.698002 360.032013
464 0 4 0.053000 27.406000 36.153000 361.785004
465 0 4 0.053000 29.273001 34.525002 362.152008
466 0 4 0.053000 29.221001 34.070999 360.403992
467 0 4 0.053000 29.775999 36.432999 359.772003
468 0 4 0.053000 29.837000 36.889000 361.520996
469 0 4 0.053000 31.697001 35.249001 361.884003
470 0 4 0.053000 31.624001 34.785000 360.135986
471 0 4 0.053000 32.162998 37.139000 359.484985
472 0 4 0.053000 32.252998 37.605999 361.230988
473 0 4 0.053000 34.007000 35.483002 359.829987
474 0 4 0.053000 34.117001 35.964001 361.571014
475 0 4 0.053000 34.669998 38.312000 360.880005
476 0 4 0.053000 34.541000 37.827000 359.141998
477 0 4 0.053000 36.384998 36.164001 359.467010
478 0 4 0.053000 36.528000 36.661999 361.200989
479 0 4 0.053000 37.075001 38.999001 360.476013
480 0 4 0.053000 36.923000 38.495998 358.744995
481 0 4 0.053000 38.771000 36.834000 359.063995
482 0 4 0.053000 38.924999 37.342999 360.794006
483 0 4 0.053000 39.459000 39.675999 360.053009
484 0 4 0.053000 39.316002 39.161999 358.325012
485 0 4 0.053000 41.178001 37.515999 358.664001
486 0 4 0.053000 41.307999 38.028000 360.394012
487 0 4 0.053000 41.824001 40.366001 359.661987
488 0 4 0.053000 41.717999 39.848999 357.932007
489 0 4 0.053000 43.598000 38.230000 358.307007
490 0 4 0.053000 43.685001 38.738998 360.040009
491 0 4 0.053000 44.165001 41.075001 359.332001
492 0 4 0.053000 44.103001 40.563999 357.597992
493 0 4 0.053000 45.980999 38.941002 358.023987
494 0 4 0.053000 46.032001 39.446999 359.743011
495 0 4 0.053000 48.370998 39.942001 359.554993
496 0 4 0.053000 48.984001 41.042000 358.273987
497 0 4 0.053000 48.334000 39.424999 357.830994
498 0 4 0.053000 45.712002 41.867001 356.817993
499 0 4 0.053000 46.729000 40.487000 356.256989
500 0 4 0.053000 47.478001 42.064999 356.696014
501 0 4 0.053000 45.769001 42.576000 359.157990
502 0 4 0.053000 47.535000 42.777000 359.095001
503 0 4 0.053000 46.808998 41.709000 360.350006
504 0 5 -1.000000 46.367001 42.810001 358.169006
505 0 1 -0.106000 15.201000 18.948999 282.109985
506 0 1 -0.106000 15.757000 17.719000 282.830994
507 0 1 -0.106000 17.285999 17.761999 282.878998
508 0 1 -0.106000 17.841999 16.518000 283.576996
509 0 1 -0.106000 19.372000 16.546000 283.600006
510 0 1 -0.106000 19.927000 15.298000 284.290009
511 0 1 -0.106000 21.457001 15.322000 284.303009
512 0 1 -0.106000 22.016001 14.083000 285.005005
513 0 1 -0.106000 23.546000 14.122000 285.029999
514 0 1 -0.106000 24.114000 12.902000 285.760010
515 0 1 -0.106000 25.645000 12.963000 285.803009
516 0 1 0.301100 26.219000 11.751000 286.569000
517 0 2 -0.628400 27.709999 11.714000 286.687988
518 0 3 0.248100 28.226000 12.900000 287.414001
519 0 3 0.248100 28.356001 11.631000 285.355011
520 0 3 0.248100 28.075001 10.502000 287.459015
521 0 1 -0.106000 13.672000 18.889999 282.031006
522 0 1 -0.106000 13.117000 20.108999 281.287994
523 0 1 -0.106000 11.590000 20.041000 281.191010
524 0 3 -0.159000 11.034000 21.249001 280.441986
525 0 4 0.053000 9.928000 21.174000 280.384003
526 0 4 0.053000 11.444000 21.283001 279.410004
527 0 4 0.053000 11.301000 22.187000 280.972992
528 0 4 0.053000 11.150000 20.017000 282.212006
529 0 4 0.053000 11.290000 19.115999 280.652008
530 0 4 0.053000 13.547000 20.138000 280.261993
531 0 4 0.053000 13.413000 21.035000 281.828003
532 0 4 0.053000 13.250000 18.858000 283.059998
533 0 4 0.053000 13.370000 17.964001 281.490997
534 0 4 0.053000 15.616000 18.985001 281.078003
535 0 4 0.053000 15.510000 19.868999 282.653015
536 0 4 0.053000 15.437000 16.802000 282.287994
537 0 4 0.053000 15.354000 17.681000 283.867004
538 0 4 0.053000 17.615999 18.673000 283.425995
539 0 4 0.053000 17.683001 17.804001 281.839996
540 0 4 0.053000 17.503000 15.610000 283.032990
541 0 4 0.053000 17.455999 16.476999 284.619995
542 0 4 0.053000 19.716000 17.452999 284.144989
543 0 4 0.053000 19.754000 16.590000 282.556000
544 0 4 0.053000 19.580000 14.390000 283.746002
545 0 4 0.053000 19.549000 15.257000 285.334991
546 0 4 0.053000 21.802000 16.233000 284.841003
547 0 4 0.053000 21.836000 15.357000 283.257996
548 0 4 0.053000 21.677000 13.167000 284.471985
549 0 4 0.053000 21.632999 14.051000 286.049011
550 0 4 0.053000 23.875999 15.046000 285.553986
551 0 4 0.053000 23.931999 14.143000 283.987000
552 0 4 0.053000 23.792999 11.973000 285.239014
553 0 4 0.053000 23.719000 12.883000 286.799988
554 0 4 0.053000 25.931999 13.908000 286.309998
555 0 4 0.053000 26.020000 12.980000 284.760010
556 0 4 0.053000 25.863001 10.827000 286.056000
557 0 4 0.053000 25.768000 11.753000 287.588013
558 0 4 0.053000 27.625000 10.523000 288.476990
559 0 4 0.053000 29.177999 10.417000 287.580994
560 0 4 0.053000 27.722000 9.578000 286.946991
561 0 4 0.053000 28.191999 12.554000 284.760010
562 0 4 0.053000 27.966999 10.764000 284.776001
563 0 4 0.053000 29.459000 11.513000 285.454010
564 0 4 0.053000 28.070000 13.836000 286.838989
565 0 4 0.053000 29.322001 12.818000 287.584991
566 0 4 0.053000 27.730000 13.008000 288.404999
567 0 5 -1.000000 28.895000 13.258000 286.226990
568 0 1 -0.106000 45.368000 49.047001 400.028015
569 0 1 -0.106000 44.191002 48.125999 400.355988
570 0 1 -0.106000 43.521000 48.546001 401.666992
571 0 1 -0.106000 42.360001 47.606998 402.006989
572 0 1 -0.106000 41.708000 48.007999 403.333008
573 0 1 -0.106000 40.554001 47.063999 403.677002
574 0 1 -0.106000 39.910000 47.459000 405.006989
575 0 1 -0.106000 38.745998 46.527000 405.347992
576 0 1 -0.106000 38.095001 46.938999 406.670013
577 0 1 -0.106000 36.907001 46.032001 407.003998
578 0 1 -0.106000 36.245998 46.467999 408.316010
579 0 1 0.301100 35.026001 45.576000 408.635986
580 0 2 -0.628400 34.291000 45.922001 409.891998
581 0 3 0.248100 33.748001 47.300999 409.841003
582 0 3 0.248100 35.160000 45.776001 411.084991
583 0 3 0.248100 33.153999 44.980000 410.027008
584 0 1 -0.106000 46.060001 48.608002 398.734009
585 0 1 -0.106000 47.252998 49.514000 398.419006
586 0 1 -0.106000 47.958000 49.063999 397.135010
587 0 3 -0.159000 49.153999 49.959999 396.824005
588 0 4 0.053000 49.646999 49.611000 395.893005
589 0 4 0.053000 49.890999 49.918999 397.654999
590 0 4 0.053000 48.821999 51.009998 396.681000
591 0 4 0.053000 47.245998 49.104000 396.282013
592 0 4 0.053000 48.314999 48.018002 397.252014
593 0 4 0.053000 47.974998 49.476002 399.265015
594 0 4 0.053000 46.897999 50.562000 398.298004
595 0 4 0.053000 45.331001 48.646999 397.894012
596 0 4 0.053000 46.417999 47.560001 398.848999
597 0 4 0.053000 46.103001 49.009998 400.863007
598 0 4 0.053000 45.002998 50.091000 399.917999
599 0 4 0.053000 44.561001 47.081001 400.455994
600 0 4 0.053000 43.445999 48.165001 399.529999
601 0 4 0.053000 43.140999 49.587002 401.575012
602 0 4 0.053000 44.271000 48.507999 402.488007
603 0 4 0.053000 42.742001 46.566002 402.089996
604 0 4 0.053000 41.602001 47.647999 401.194000
605 0 4 0.053000 41.323002 49.049000 403.255005
606 0 4 0.053000 42.469002 47.967999 404.143005
607 0 4 0.053000 40.938999 46.021999 403.752014
608 0 4 0.053000 39.791000 47.106998 402.868988
609 0 4 0.053000 39.532001 48.504002 404.933014
610 0 4 0.053000 40.671001 47.410999 405.816010
611 0 4 0.053000 39.116001 45.480999 405.425995
612 0 4 0.053000 37.987000 46.577999 404.535004
613 0 4 0.053000 37.738998 47.988998 406.588013
614 0 4 0.053000 38.848000 46.879002 407.487000
615 0 4 0.053000 37.256001 44.979000 407.093994
616 0 4 0.053000 36.160999 46.091999 406.179993
617 0 4 0.053000 35.926998 47.525002 408.200012