LAMMPS data file containing the original structures and the polarizable gold

19698 atoms
15833 bonds
24336 angles
34704 dihedrals
0 impropers

7 atom types
7 bond types
13 angle types
15 dihedral types

-48.292946 57.000000 xlo xhi
-3.000000 57.000000 ylo yhi
-3.000000 90.655273 zlo zhi

Masses

1 12.011150
2 14.006700
3 12.011150
4 1.007970
5 79.908997
6 195.960007
7 1.000000

Atoms

1 0 1 -0.106000 40.014999 35.346001 474.408997
2 0 1 -0.106000 41.331001 35.985001 473.960999
3 0 1 -0.106000 41.477001 37.394001 474.542999
4 0 1 -0.106000 42.782001 38.042999 474.071991
5 0 1 -0.106000 42.915001 39.460999 474.630005
6 0 1 -0.106000 44.214001 40.112999 474.152008
7 0 1 -0.106000 44.341000 41.534000 474.701996
8 0 1 -0.106000 45.646999 42.183998 474.238007
9 0 1 -0.106000 45.776001 43.599998 474.804993
10 0 1 -0.106000 47.095001 44.245998 474.373993
11 0 1 -0.106000 47.227001 45.653000 474.968994
12 0 1 0.301100 48.571999 46.293999 474.562988
13 0 2 -0.628400 48.817001 47.667000 475.101990
14 0 3 0.248100 48.826000 47.674999 476.584991
15 0 3 0.248100 47.801998 48.630001 474.609009
16 0 3 0.248100 50.148998 48.111000 474.627014
17 0 1 -0.106000 39.852001 33.950001 473.799988
18 0 1 -0.106000 38.523998 33.320000 474.227997
19 0 1 -0.106000 38.351002 31.931999 473.604004
20 0 3 -0.159000 37.022999 31.305000 474.020996
21 0 4 0.053000 36.921001 30.302999 473.553009
22 0 4 0.053000 36.175999 31.941999 473.687012
23 0 4 0.053000 36.980999 31.190001 475.125000
24 0 4 0.053000 39.180000 31.267000 473.928986
25 0 4 0.053000 38.375000 32.014999 472.494995
26 0 4 0.053000 37.686001 33.973999 473.901001
27 0 4 0.053000 38.499001 33.233002 475.337006
28 0 4 0.053000 40.695000 33.301998 474.130005
29 0 4 0.053000 39.875999 34.030998 472.690002
30 0 4 0.053000 39.167000 35.987000 474.078003
31 0 4 0.053000 39.998001 35.271999 475.518005
32 0 4 0.053000 41.346001 36.049000 472.850006
33 0 4 0.053000 42.183998 35.355000 474.295990
34 0 4 0.053000 41.469002 37.340000 475.653992
35 0 4 0.053000 40.618999 38.018002 474.208008
36 0 4 0.053000 42.790001 38.087002 472.960999
37 0 4 0.053000 43.644001 37.426998 474.414001
38 0 4 0.053000 42.908001 39.423000 475.743011
39 0 4 0.053000 42.049999 40.073002 474.289001
40 0 4 0.053000 44.222000 40.147999 473.039001
41 0 4 0.053000 45.078999 39.504002 474.497009
42 0 4 0.053000 44.327000 41.498001 475.813995
43 0 4 0.053000 43.480000 42.145000 474.351990
44 0 4 0.053000 45.667999 42.227001 473.127014
45 0 4 0.053000 46.505001 41.569000 474.588989
46 0 4 0.053000 45.741001 43.549000 475.915985
47 0 4 0.053000 44.924000 44.220001 474.447998
48 0 4 0.053000 47.134998 44.306000 473.264008
49 0 4 0.053000 47.941002 43.618000 474.729004
50 0 4 0.053000 47.164001 45.561001 476.072998
51 0 4 0.053000 46.375999 46.264000 474.604004
52 0 4 0.053000 48.612999 46.317001 473.447998
53 0 4 0.053000 49.386002 45.612000 474.904999
54 0 4 0.053000 50.952000 47.426998 474.984009
55 0 4 0.053000 50.390999 49.132999 474.996002
56 0 4 0.053000 50.192001 48.137001 473.514008
57 0 4 0.053000 46.790001 48.400002 475.005005
58 0 4 0.053000 47.754002 48.625999 473.497009
59 0 4 0.053000 48.042000 49.666000 474.938995
60 0 4 0.053000 47.825001 47.445000 477.005005
61 0 4 0.053000 49.105999 48.678001 476.977997
62 0 4 0.053000 49.555000 46.933998 476.983002
63 0 5 -1.000000 47.695999 48.514000 476.524994
64 0 1 -0.106000 12.244000 46.702999 529.033020
65 0 1 -0.106000 12.978000 47.508999 527.958008
66 0 1 -0.106000 12.167000 47.548000 526.659973
67 0 1 -0.106000 12.915000 48.331001 525.577026
68 0 1 -0.106000 12.119000 48.345001 524.270020
69 0 1 -0.106000 12.870000 49.120998 523.185974
70 0 1 -0.106000 12.079000 49.125999 521.877014
71 0 1 -0.106000 12.820000 49.912998 520.794983
72 0 1 -0.106000 12.015000 49.929001 519.492981
73 0 1 -0.106000 12.733000 50.743000 518.413025
74 0 1 -0.106000 11.906000 50.775002 517.122009
75 0 1 0.301100 12.612000 51.624001 516.041992
76 0 2 -0.628400 11.886000 51.738998 514.739990
77 0 3 0.248100 10.558000 52.375000 514.914001
78 0 3 0.248100 11.718000 50.412998 514.096008
79 0 3 0.248100 12.697000 52.594002 513.841003
80 0 1 -0.106000 13.069000 46.634998 530.322021
81 0 1 -0.106000 12.346000 45.807999 531.388977
82 0 1 -0.106000 13.180000 45.723000 532.671997
83 0 3 -0.159000 12.467000 44.890999 533.734009
84 0 4 0.053000 13.092000 44.842999 534.650024
85 0 4 0.053000 12.298000 43.858002 533.362976
86 0 4 0.053000 11.490000 45.351002 533.992004
87 0 4 0.053000 13.356000 46.744999 533.072998
88 0 4 0.053000 14.162000 45.252998 532.448975
89 0 4 0.053000 12.171000 44.780998 530.999023
90 0 4 0.053000 11.364000 46.278000 531.616028
91 0 4 0.053000 13.243000 47.666000 530.703979
92 0 4 0.053000 14.054000 46.165001 530.099976
93 0 4 0.053000 12.071000 45.668999 528.658020
94 0 4 0.053000 11.261000 47.176998 529.244995
95 0 4 0.053000 13.964000 47.035000 527.755981
96 0 4 0.053000 13.146000 48.547001 528.320984
97 0 4 0.053000 11.181000 48.026001 526.849976
98 0 4 0.053000 11.998000 46.506001 526.304016
99 0 4 0.053000 13.903000 47.855000 525.395996
100 0 4 0.053000 13.077000 49.375999 525.924011
101 0 4 0.053000 11.128000 48.821999 524.445984
102 0 4 0.053000 11.956000 47.299999 523.927979
103 0 4 0.053000 13.862000 48.646000 523.013000
104 0 4 0.053000 13.029000 50.167999 523.526978
105 0 4 0.053000 11.085000 49.595001 522.054016
106 0 4 0.053000 11.925000 48.080002 521.533020
107 0 4 0.053000 13.813000 49.449001 520.609985
108 0 4 0.053000 12.972000 50.959000 521.143982
109 0 4 0.053000 11.018000 50.382999 519.689026
110 0 4 0.053000 11.869000 48.884998 519.135986
111 0 4 0.053000 13.728000 50.292000 518.206970
112 0 4 0.053000 12.880000 51.783001 518.778992
113 0 4 0.053000 10.915000 51.210999 517.364990
114 0 4 0.053000 11.770000 49.730999 516.771973
115 0 4 0.053000 13.621000 51.181000 515.869019
116 0 4 0.053000 12.772000 52.641998 516.466980
117 0 4 0.053000 12.840000 53.609001 514.273010
118 0 4 0.053000 12.207000 52.717999 512.848999
119 0 4 0.053000 13.704000 52.152000 513.664978
120 0 4 0.053000 11.044000 49.752998 514.682007
121 0 4 0.053000 12.698000 49.900002 513.978027
122 0 4 0.053000 11.259000 50.514999 513.086975
123 0 4 0.053000 9.866000 51.735001 515.499023
124 0 4 0.053000 10.065000 52.548000 513.929993
125 0 4 0.053000 10.650000 53.358002 515.427979
126 0 5 -1.000000 9.989000 51.161999 514.476013
127 0 1 -0.106000 33.129002 18.719000 178.451996
128 0 1 -0.106000 34.334999 18.275999 179.283997
129 0 1 -0.106000 33.923000 17.226000 180.320007
130 0 1 -0.106000 35.125000 16.804001 181.171005
131 0 1 -0.106000 34.709000 15.777000 182.225998
132 0 1 -0.106000 35.908001 15.362000 183.080994
133 0 1 -0.106000 35.490002 14.342000 184.141998
134 0 1 -0.106000 36.688999 13.914000 184.990005
135 0 1 -0.106000 36.266998 12.881000 186.037994
136 0 1 -0.106000 37.466999 12.421000 186.869995
137 0 1 -0.106000 37.039001 11.368000 187.897995
138 0 1 0.301100 38.254002 10.877000 188.716003
139 0 2 -0.628400 37.956001 9.832000 189.744003
140 0 3 0.248100 37.396000 8.606000 189.125000
141 0 3 0.248100 37.015999 10.339000 190.774002
142 0 3 0.248100 39.230000 9.474000 190.410995
143 0 1 -0.106000 33.532001 19.794001 177.436996
144 0 1 -0.106000 32.321999 20.254000 176.621002
145 0 1 -0.106000 32.720001 21.343000 175.619995
146 0 3 -0.159000 31.513000 21.812000 174.811005
147 0 4 0.053000 31.827999 22.601000 174.097000
148 0 4 0.053000 30.738001 22.231001 175.487000
149 0 4 0.053000 31.080000 20.964001 174.238998
150 0 4 0.053000 33.490002 20.948000 174.921997
151 0 4 0.053000 33.146000 22.214001 176.164001
152 0 4 0.053000 31.548000 20.658001 177.311005
153 0 4 0.053000 31.896000 19.385000 176.072998
154 0 4 0.053000 34.307999 19.382999 176.753006
155 0 4 0.053000 33.959999 20.666000 177.981003
156 0 4 0.053000 32.351002 19.134001 179.130005
157 0 4 0.053000 32.707001 17.841000 177.914993
158 0 4 0.053000 34.757999 19.160000 179.811996
159 0 4 0.053000 35.113998 17.850000 178.613998
160 0 4 0.053000 33.504002 16.336000 179.802002
161 0 4 0.053000 33.140999 17.657000 180.985001
162 0 4 0.053000 35.546001 17.698000 181.679993
163 0 4 0.053000 35.907001 16.364000 180.511993
164 0 4 0.053000 34.286999 14.879000 181.720993
165 0 4 0.053000 33.925999 16.219000 182.880997
166 0 4 0.053000 36.332001 16.261000 183.584000
167 0 4 0.053000 36.688999 14.915000 182.427002
168 0 4 0.053000 35.060001 13.448000 183.639008
169 0 4 0.053000 34.713001 14.790000 184.800003
170 0 4 0.053000 37.122002 14.802000 185.498993
171 0 4 0.053000 37.463001 13.468000 184.326996
172 0 4 0.053000 35.823002 12.002000 185.522003
173 0 4 0.053000 35.499001 13.328000 186.707993
174 0 4 0.053000 37.912998 13.294000 187.395004
175 0 4 0.053000 38.231998 11.981000 186.192993
176 0 4 0.053000 36.581001 10.521000 187.345993
177 0 4 0.053000 36.277000 11.824000 188.563995
178 0 4 0.053000 38.710999 11.767000 189.210007
179 0 4 0.053000 39.006001 10.481000 187.994995
180 0 4 0.053000 39.967999 9.073000 189.681000
181 0 4 0.053000 39.073002 8.697000 191.192993
182 0 4 0.053000 39.687000 10.361000 190.906998
183 0 4 0.053000 36.009998 10.543000 190.348999
184 0 4 0.053000 37.398998 11.276000 191.237000
185 0 4 0.053000 36.869999 9.589000 191.582993
186 0 4 0.053000 36.389999 8.786000 188.690002
187 0 4 0.053000 37.269001 7.799000 189.880005
188 0 4 0.053000 38.063999 8.224000 188.320999
189 0 5 -1.000000 36.215000 8.853000 189.854004
190 0 3 -0.159000 33.407001 16.608000 57.164001
191 0 1 -0.106000 33.903999 15.601000 58.203999
192 0 1 -0.106000 33.282001 15.885000 59.574001
193 0 1 -0.106000 33.800999 14.893000 60.619999
194 0 1 -0.106000 33.202999 15.194000 61.995998
195 0 1 -0.106000 33.728001 14.209000 63.042999
196 0 1 -0.106000 33.137001 14.516000 64.419998
197 0 1 -0.106000 33.648998 13.524000 65.466003
198 0 1 -0.106000 33.041000 13.826000 66.837997
199 0 1 -0.106000 33.521000 12.818000 67.886002
200 0 1 -0.106000 32.886002 13.113000 69.249001
201 0 1 0.301100 33.341000 12.076000 70.300003
202 0 2 -0.628400 32.770000 12.258000 71.670998
203 0 3 0.248100 31.290001 12.160000 71.658997
204 0 3 0.248100 33.174000 13.559000 72.257004
205 0 1 0.301100 33.300999 11.174000 72.531998
206 0 1 -0.106000 34.054001 16.347000 55.799999
207 0 1 -0.106000 33.576000 17.368999 54.764999
208 0 1 -0.106000 34.237000 17.121000 53.405998
209 0 1 -0.106000 33.771000 18.145000 52.374001
210 0 1 -0.106000 34.265999 17.944000 51.401001
211 0 1 -0.106000 34.035999 19.171000 52.705002
212 0 1 -0.106000 32.671001 18.077999 52.236000
213 0 1 -0.106000 33.980000 16.101999 53.043999
214 0 1 -0.106000 35.341999 17.194000 53.507999
215 0 1 -0.106000 33.834999 18.392000 55.115002
216 0 3 -0.159000 32.471001 17.295000 54.658001
217 0 4 0.053000 33.792000 15.321000 55.458000
218 0 4 0.053000 35.160000 16.419001 55.901001
219 0 4 0.053000 33.668999 17.636999 57.498001
220 0 4 0.053000 32.301998 16.531000 57.071999
221 0 4 0.053000 35.011002 15.677000 58.285000
222 0 4 0.053000 33.637001 14.571000 57.882000
223 0 4 0.053000 32.174999 15.805000 59.505001
224 0 4 0.053000 33.549000 16.917999 59.889000
225 0 4 0.053000 34.908001 14.970000 60.681000
226 0 4 0.053000 33.527000 13.859000 60.313999
227 0 4 0.053000 32.092999 15.118000 61.941002
228 0 4 0.053000 33.474998 16.229000 62.297001
229 0 4 0.053000 34.838001 14.282000 63.095001
230 0 4 0.053000 33.451000 13.174000 62.743999
231 0 4 0.053000 32.028000 14.449000 64.363998
232 0 4 0.053000 33.417999 15.549000 64.722000
233 0 4 0.053000 34.757000 13.587000 65.529999
234 0 4 0.053000 33.366001 12.492000 65.160004
235 0 4 0.053000 31.931999 13.773000 66.763000
236 0 4 0.053000 33.330002 14.854000 67.152000
237 0 4 0.053000 34.627998 12.869000 67.972000
238 0 4 0.053000 33.233002 11.793000 67.561996
239 0 4 0.053000 31.783001 13.074000 69.125999
240 0 4 0.053000 33.182999 14.137000 69.556000
241 0 4 0.053000 34.455002 12.115000 70.351997
242 0 4 0.053000 33.067001 11.067000 69.916000
243 0 4 0.053000 33.012001 10.173000 72.140999
244 0 4 0.053000 32.910000 11.255000 73.570999
245 0 4 0.053000 34.412998 11.212000 72.585999
246 0 4 0.053000 32.731998 14.415000 71.704002
247 0 4 0.053000 34.280998 13.672000 72.252998
248 0 4 0.053000 32.821999 13.649000 73.308998
249 0 4 0.053000 30.825001 13.004000 71.109001
250 0 4 0.053000 30.879000 12.196000 72.692001
251 0 4 0.053000 30.958000 11.206000 71.190002
252 0 4 0.053000 31.260000 13.503000 72.084000
253 0 4 0.053000 37.325001 7.762000 536.156982
254 0 4 0.053000 36.862999 8.770000 535.103027
255 0 4 0.053000 38.056000 9.542000 534.531006
256 0 4 0.053000 37.590000 10.570000 533.495972
257 0 4 0.053000 38.777000 11.362000 532.945007
258 0 4 0.053000 38.311001 12.395000 531.916992
259 0 4 0.053000 39.497002 13.194000 531.375000
260 0 4 0.053000 39.035999 14.218000 530.335999
261 0 4 0.053000 40.230000 15.001000 529.783997
262 0 4 0.053000 39.783001 16.006001 528.718994
263 0 4 0.053000 40.987999 16.766001 528.153992
264 0 4 0.053000 40.543999 17.756001 527.054993
265 0 4 0.053000 41.644001 18.545000 526.419006
266 0 4 0.053000 42.632000 17.660999 525.755005
267 0 4 0.053000 42.335999 19.403999 527.411011
268 0 4 0.053000 41.037998 19.421000 525.388000
269 0 4 0.053000 36.130001 7.012000 536.755005
270 0 4 0.053000 36.589001 6.020000 537.827026
271 0 4 0.053000 35.391998 5.285000 538.439026
272 0 4 0.053000 35.846001 4.303000 539.515991
273 0 5 -1.000000 34.960999 3.786000 539.943970
274 0 1 -0.106000 36.373001 4.843000 540.330994
275 0 1 -0.106000 36.528000 3.542000 539.080994
276 0 1 -0.106000 34.849998 4.725000 537.645996
277 0 1 -0.106000 34.695000 6.020000 538.895996
278 0 1 -0.106000 37.126999 6.572000 538.629028
279 0 1 -0.106000 37.284000 5.281000 537.370972
280 0 1 -0.106000 35.595001 6.465000 535.945984
281 0 1 -0.106000 35.430000 7.747000 537.211975
282 0 1 -0.106000 37.856998 8.303000 536.971008
283 0 1 -0.106000 38.026001 7.034000 535.692993
284 0 1 -0.106000 36.155998 9.490000 535.572021
285 0 1 0.301100 36.339001 8.236000 534.281006
286 0 2 -0.628400 38.765999 8.831000 534.054993
287 0 3 0.248100 38.578999 10.071000 535.359009
288 0 3 0.248100 36.874001 11.273000 533.973999
289 0 3 0.248100 37.075001 10.044000 532.661011
290 0 1 -0.106000 39.498001 10.662000 532.463989
291 0 1 -0.106000 39.291000 11.884000 533.783020
292 0 1 -0.106000 37.588001 13.093000 532.396973
293 0 3 -0.159000 37.800999 11.873000 531.077026
294 0 4 0.053000 40.222000 12.494000 530.901001
295 0 4 0.053000 40.004002 13.720000 532.213013
296 0 4 0.053000 38.313999 14.923000 530.802002
297 0 4 0.053000 38.528999 13.686000 529.500000
298 0 4 0.053000 40.952999 14.288000 529.330994
299 0 4 0.053000 40.733002 15.542000 530.617004
300 0 4 0.053000 39.063999 16.726999 529.166016
301 0 4 0.053000 39.276001 15.459000 527.893982
302 0 4 0.053000 41.694000 16.018999 527.734985
303 0 4 0.053000 41.480000 17.305000 528.989990
304 0 4 0.053000 39.799000 18.452000 527.507019
305 0 4 0.053000 40.008999 17.170000 526.270996
306 0 4 0.053000 40.515999 18.822001 524.607971
307 0 4 0.053000 41.810001 20.038000 524.875977
308 0 4 0.053000 40.293999 20.118000 525.838013
309 0 4 0.053000 42.886002 18.801001 528.164001
310 0 4 0.053000 41.612999 20.059999 527.945007
311 0 4 0.053000 43.091000 20.054001 526.916016
312 0 4 0.053000 43.194000 17.046000 526.489014
313 0 4 0.053000 43.391998 18.256001 525.200989
314 0 4 0.053000 42.133999 16.979000 525.030029
315 0 4 0.053000 43.585999 18.142000 526.674988
316 0 4 0.053000 20.541000 21.694000 231.901001
317 0 4 0.053000 20.344000 20.277000 232.447006
318 0 4 0.053000 21.676001 19.525999 232.501999
319 0 4 0.053000 21.473000 18.100000 233.022995
320 0 4 0.053000 22.799999 17.337999 233.050995
321 0 4 0.053000 22.596001 15.911000 233.563004
322 0 4 0.053000 23.921000 15.147000 233.580994
323 0 4 0.053000 23.723000 13.724000 234.106003
324 0 4 0.053000 25.055000 12.971000 234.138000
325 0 4 0.053000 24.872999 11.556000 234.694000
326 0 4 0.053000 26.216999 10.820000 234.746994
327 0 4 0.053000 26.041000 9.404000 235.339996
328 0 4 0.053000 27.295000 8.596000 235.453995
329 0 4 0.053000 28.287001 9.256000 236.337006
330 0 4 0.053000 27.903000 8.351000 234.123001
331 0 4 0.053000 26.938999 7.287000 236.050995
332 0 4 0.053000 19.202999 22.436001 231.813004
333 0 4 0.053000 19.396999 23.844000 231.244003
334 0 4 0.053000 18.058001 24.579000 231.138000
335 0 4 0.053000 18.246000 25.980000 230.561005
336 0 5 -1.000000 17.261999 26.489000 230.492004
337 0 1 -0.106000 18.688999 25.920000 229.544006
338 0 1 -0.106000 18.914000 26.579000 231.216003
339 0 1 -0.106000 17.594999 24.664000 232.145004
340 0 1 -0.106000 17.370001 24.010000 230.475998
341 0 1 -0.106000 19.855000 23.768999 230.233002
342 0 1 -0.106000 20.083000 24.417000 231.906998
343 0 1 -0.106000 18.750999 22.503000 232.828003
344 0 1 -0.106000 18.513000 21.865999 231.151001
345 0 1 -0.106000 20.989000 21.632999 230.884003
346 0 1 -0.106000 21.233999 22.254000 232.565994
347 0 1 -0.106000 19.643000 19.725000 231.781998
348 0 1 0.301100 19.903999 20.330000 233.466995
349 0 2 -0.628400 22.382000 20.068001 233.169998
350 0 3 0.248100 22.113001 19.481001 231.479004
351 0 3 0.248100 20.761000 17.565001 232.358002
352 0 3 0.248100 21.046000 18.139999 234.050003
353 0 1 -0.106000 23.517000 17.870001 233.716003
354 0 1 -0.106000 23.225000 17.302999 232.024002
355 0 1 -0.106000 21.875999 15.380000 232.899002
356 0 3 -0.159000 22.174999 15.947000 234.591995
357 0 4 0.053000 24.641001 15.683000 234.238998
358 0 4 0.053000 24.339001 15.106000 232.550995
359 0 4 0.053000 23.006001 13.181000 233.451996
360 0 4 0.053000 23.304001 13.770000 235.136002
361 0 4 0.053000 25.770000 13.527000 234.783997
362 0 4 0.053000 25.472000 12.915000 233.108002
363 0 4 0.053000 24.164000 10.991000 234.050003
364 0 4 0.053000 24.450001 11.620000 235.720993
365 0 4 0.053000 26.906000 11.417000 235.380005
366 0 4 0.053000 26.622000 10.765000 233.716003
367 0 4 0.053000 25.302999 8.861000 234.703995
368 0 4 0.053000 25.580999 9.517000 236.348999
369 0 4 0.053000 26.490000 7.415000 237.061005
370 0 4 0.053000 27.834999 6.636000 236.162003
371 0 4 0.053000 26.202999 6.741000 235.417007
372 0 4 0.053000 28.271999 9.291000 233.660004
373 0 4 0.053000 27.171000 7.881000 233.429993
374 0 4 0.053000 28.783001 7.675000 234.205994
375 0 4 0.053000 28.669001 10.200000 235.895996
376 0 4 0.053000 29.174999 8.604000 236.496002
377 0 4 0.053000 27.844999 9.484000 237.332001
378 0 4 0.053000 29.128000 9.357000 235.210007
379 0 4 0.053000 15.491000 35.515999 395.769012
380 0 4 0.053000 16.250000 36.797001 395.416992
381 0 4 0.053000 17.761000 36.590000 395.559998
382 0 4 0.053000 18.517000 37.881001 395.234009
383 0 4 0.053000 20.025000 37.683998 395.404999
384 0 4 0.053000 20.781000 38.976002 395.087006
385 0 4 0.053000 22.287001 38.780998 395.268005
386 0 4 0.053000 23.047001 40.067001 394.937988
387 0 4 0.053000 24.555000 39.860001 395.104004
388 0 4 0.053000 25.327000 41.131001 394.743011
389 0 4 0.053000 26.836000 40.905998 394.886993
390 0 4 0.053000 27.618999 42.176998 394.489990
391 0 4 0.053000 29.108000 42.067001 394.578003
392 0 4 0.053000 29.628000 41.007000 393.681000
393 0 4 0.053000 29.549000 41.798000 395.968994
394 0 4 0.053000 29.686001 43.362999 394.148987
395 0 4 0.053000 13.978000 35.730000 395.658997
396 0 4 0.053000 13.217000 34.456001 396.033997
397 0 4 0.053000 11.704000 34.674999 395.942993
398 0 4 0.053000 10.943000 33.409000 396.328003
399 0 5 -1.000000 9.851000 33.596001 396.256012
400 0 1 -0.106000 11.187000 33.116001 397.371002
401 0 1 -0.106000 11.208000 32.577000 395.640991
402 0 1 -0.106000 11.428000 34.960999 394.904999
403 0 1 -0.106000 11.403000 35.495998 396.631012
404 0 1 -0.106000 13.483000 34.165001 397.075012
405 0 1 -0.106000 13.514000 33.633999 395.346008
406 0 1 -0.106000 13.722000 36.022999 394.615997
407 0 1 -0.106000 13.675000 36.551998 396.346008
408 0 1 -0.106000 15.740000 35.219002 396.812012
409 0 1 -0.106000 15.801000 34.699001 395.079987
410 0 1 -0.106000 15.929000 37.611000 396.102997
411 0 1 0.301100 16.014000 37.094002 394.371002
412 0 2 -0.628400 18.091999 35.780998 394.872009
413 0 3 0.248100 17.990000 36.289001 396.605988
414 0 3 0.248100 18.177000 38.688999 395.916992
415 0 3 0.248100 18.299000 38.181000 394.183990
416 0 1 -0.106000 20.372000 36.875000 394.721985
417 0 1 -0.106000 20.239000 37.381001 396.453003
418 0 1 -0.106000 20.431000 39.784000 395.768005
419 0 3 -0.159000 20.570000 39.276001 394.036987
420 0 4 0.053000 22.632999 37.967999 394.592010
421 0 4 0.053000 22.499001 38.486000 396.320007
422 0 4 0.053000 22.709000 40.883999 395.612000
423 0 4 0.053000 22.832001 40.358002 393.885986
424 0 4 0.053000 24.882999 39.033001 394.436005
425 0 4 0.053000 24.775000 39.577999 396.157990
426 0 4 0.053000 25.009001 41.963001 395.411011
427 0 4 0.053000 25.097000 41.410000 393.691010
428 0 4 0.053000 27.117001 40.061001 394.225006
429 0 4 0.053000 27.046000 40.630001 395.941010
430 0 4 0.053000 27.267000 43.008999 395.144989
431 0 4 0.053000 27.329000 42.438000 393.446014
432 0 4 0.053000 29.395000 43.605999 393.102997
433 0 4 0.053000 30.798000 43.346001 394.194000
434 0 4 0.053000 29.337000 44.195999 394.803009
435 0 4 0.053000 29.219999 40.797001 396.319000
436 0 4 0.053000 29.150000 42.564999 396.670013
437 0 4 0.053000 30.660000 41.807999 396.042999
438 0 4 0.053000 29.309000 39.995998 394.009003
439 0 4 0.053000 30.740999 40.998001 393.677002
440 0 4 0.053000 29.281000 41.165001 392.635010
441 0 4 0.053000 30.077000 40.337002 394.835999
442 0 4 0.053000 13.759000 48.849998 334.533997
443 0 4 0.053000 14.177000 49.213001 333.106995
444 0 4 0.053000 15.567000 49.854000 333.095001
445 0 4 0.053000 15.973000 50.243000 331.670013
446 0 4 0.053000 17.350000 50.910000 331.660004
447 0 4 0.053000 17.750999 51.306000 330.237000
448 0 4 0.053000 19.122999 51.980999 330.230011
449 0 4 0.053000 19.534000 52.366001 328.807007
450 0 4 0.053000 20.915001 53.026001 328.804993
451 0 4 0.053000 21.350000 53.383999 327.381012
452 0 4 0.053000 22.745001 54.019001 327.385986
453 0 4 0.053000 23.200001 54.349998 325.947998
454 0 4 0.053000 24.559000 54.963001 325.829987
455 0 4 0.053000 25.608999 54.061001 326.362000
456 0 4 0.053000 24.625999 56.268002 326.532013
457 0 4 0.053000 24.830999 55.194000 324.390991
458 0 4 0.053000 12.354000 48.238998 334.550995
459 0 4 0.053000 11.926000 47.897999 335.980988
460 0 4 0.053000 10.513000 47.306000 336.002014
461 0 4 0.053000 10.079000 46.973999 337.428009
462 0 5 -1.000000 9.054000 46.549999 337.415009
463 0 1 -0.106000 10.078000 47.891998 338.052002
464 0 1 -0.106000 10.769000 46.228001 337.876007
465 0 1 -0.106000 10.487000 46.376999 335.391998
466 0 1 -0.106000 9.795000 48.035999 335.571014
467 0 1 -0.106000 11.943000 48.823002 336.598999
468 0 1 -0.106000 12.641000 47.164001 336.414001
469 0 1 -0.106000 12.345000 47.316002 333.929993
470 0 1 -0.106000 11.633000 48.969002 334.118988
471 0 1 -0.106000 13.762000 49.770000 335.160004
472 0 1 -0.106000 14.485000 48.123001 334.959015
473 0 1 -0.106000 13.442000 49.933998 332.683990
474 0 1 0.301100 14.185000 48.297001 332.476013
475 0 2 -0.628400 16.311001 49.139000 333.510010
476 0 3 0.248100 15.553000 50.768002 333.730011
477 0 3 0.248100 15.223000 50.950001 331.255005
478 0 3 0.248100 15.998000 49.330002 331.032990
479 0 1 -0.106000 18.105000 50.203999 332.074005
480 0 1 -0.106000 17.322001 51.819000 332.299988
481 0 1 -0.106000 16.993000 52.007999 329.821991
482 0 3 -0.159000 17.783001 50.396000 329.598999
483 0 4 0.053000 19.877001 51.279999 330.651001
484 0 4 0.053000 19.090000 52.895000 330.864014
485 0 4 0.053000 18.785999 53.069000 328.380005
486 0 4 0.053000 19.565001 51.449001 328.177002
487 0 4 0.053000 21.653999 52.320999 329.244995
488 0 4 0.053000 20.884001 53.948002 329.425995
489 0 4 0.053000 20.618999 54.092999 326.934998
490 0 4 0.053000 21.372000 52.458000 326.764008
491 0 4 0.053000 23.445000 53.296001 327.852997
492 0 4 0.053000 22.702999 54.939999 328.005005
493 0 4 0.053000 22.441000 55.035000 325.502014
494 0 4 0.053000 23.170000 53.403000 325.359985
495 0 4 0.053000 24.806000 54.240002 323.819000
496 0 4 0.053000 25.833000 55.653000 324.237000
497 0 4 0.053000 24.075001 55.880001 323.944000
498 0 4 0.053000 24.517000 56.150002 327.631012
499 0 4 0.053000 23.830000 56.957001 326.171997
500 0 4 0.053000 25.610001 56.761002 326.364990
501 0 4 0.053000 25.520000 53.925999 327.459991
502 0 4 0.053000 26.625000 54.480000 326.181000
503 0 4 0.053000 25.559000 53.061001 325.877014
504 0 4 0.053000 25.872000 55.043999 327.337006
505 0 4 0.053000 43.334999 18.306999 250.712006
506 0 4 0.053000 42.691002 16.937000 250.485992
507 0 4 0.053000 41.173000 17.011999 250.671997
508 0 4 0.053000 40.533001 15.636000 250.472000
509 0 4 0.053000 39.020000 15.704000 250.686996
510 0 4 0.053000 38.382000 14.326000 250.496002
511 0 4 0.053000 36.869999 14.394000 250.720001
512 0 4 0.053000 36.227001 13.021000 250.516006
513 0 4 0.053000 34.713001 13.099000 250.725006
514 0 4 0.053000 34.055000 11.736000 250.490005
515 0 4 0.053000 32.535999 11.831000 250.675003
516 0 4 0.053000 31.867001 10.465000 250.404999
517 0 4 0.053000 30.377001 10.442000 250.542007
518 0 4 0.053000 29.730000 11.377000 249.589005
519 0 4 0.053000 29.957001 10.776000 251.925003
520 0 4 0.053000 29.913000 9.069000 250.233002
521 0 4 0.053000 44.856998 18.226000 250.559998
522 0 4 0.053000 45.502998 19.591000 250.809998
523 0 4 0.053000 47.027000 19.507000 250.677002
524 0 4 0.053000 47.675999 20.864000 250.936005
525 0 5 -1.000000 48.777000 20.775000 250.835999
526 0 1 -0.106000 47.438000 21.214001 251.962997
527 0 1 -0.106000 47.310001 21.612000 250.201004
528 0 1 -0.106000 47.296001 19.169001 249.651993
529 0 1 -0.106000 47.426998 18.774000 251.410995
530 0 1 -0.106000 45.244999 19.934999 251.835999
531 0 1 -0.106000 45.108002 20.326000 250.074997
532 0 1 -0.106000 45.106998 17.878000 249.531998
533 0 1 -0.106000 45.258999 17.490999 251.292999
534 0 1 -0.106000 43.091999 18.659000 251.740005
535 0 1 -0.106000 42.925999 19.035000 249.977997
536 0 1 -0.106000 43.111000 16.211000 251.218002
537 0 1 0.301100 42.921001 16.582001 249.457001
538 0 2 -0.628400 40.743999 17.731001 249.940002
539 0 3 0.248100 40.949001 17.371000 251.701996
540 0 3 0.248100 40.972000 14.918000 251.199997
541 0 3 0.248100 40.745998 15.277000 249.440002
542 0 1 -0.106000 38.576000 16.421000 249.960007
543 0 1 -0.106000 38.811001 16.066000 251.718002
544 0 1 -0.106000 38.828999 13.609000 251.220993
545 0 3 -0.159000 38.587002 13.967000 249.462997
546 0 4 0.053000 36.426998 15.116000 249.998993
547 0 4 0.053000 36.665001 14.747000 251.753998
548 0 4 0.053000 36.662998 12.293000 251.235001
549 0 4 0.053000 36.436001 12.671000 249.479996
550 0 4 0.053000 34.285999 13.837000 250.011002
551 0 4 0.053000 34.500000 13.439000 251.763000
552 0 4 0.053000 34.472000 10.993000 251.203995
553 0 4 0.053000 34.277000 11.400000 249.453003
554 0 4 0.053000 32.153999 12.592000 249.964005
555 0 4 0.053000 32.334999 12.166000 251.712997
556 0 4 0.053000 32.318001 9.723000 251.104996
557 0 4 0.053000 32.146999 10.152000 249.371994
558 0 4 0.053000 30.193001 8.774000 249.197006
559 0 4 0.053000 28.806000 8.986000 250.319000
560 0 4 0.053000 30.361000 8.326000 250.932007
561 0 4 0.053000 30.200001 11.828000 252.186005
562 0 4 0.053000 30.450001 10.107000 252.664993
563 0 4 0.053000 28.855000 10.669000 252.042999
564 0 4 0.053000 29.961000 12.435000 249.828995
565 0 4 0.053000 28.622000 11.282000 249.628006
566 0 4 0.053000 30.056999 11.172000 248.544998
567 0 4 0.053000 29.256001 12.090000 250.709000
568 0 4 0.053000 7.780000 14.172000 392.817993
569 0 4 0.053000 8.813000 15.039000 392.093994
570 0 4 0.053000 9.190000 16.257000 392.941986
571 0 4 0.053000 10.203000 17.138000 392.204010
572 0 4 0.053000 10.559000 18.370001 393.037994
573 0 4 0.053000 11.563000 19.254999 392.296997
574 0 4 0.053000 11.911000 20.492001 393.127014
575 0 4 0.053000 12.927000 21.372000 392.395996
576 0 4 0.053000 13.284000 22.598000 393.239014
577 0 4 0.053000 14.325000 23.468000 392.529999
578 0 4 0.053000 14.695000 24.679001 393.394012
579 0 4 0.053000 15.771000 25.540001 392.696014
580 0 4 0.053000 16.222000 26.746000 393.457001
581 0 4 0.053000 16.823000 26.371000 394.760010
582 0 4 0.053000 15.102000 27.691999 393.683014
583 0 4 0.053000 17.256001 27.434000 392.648987
584 0 4 0.053000 7.376000 12.971000 391.957001
585 0 4 0.053000 6.325000 12.117000 392.671997
586 0 4 0.053000 5.906000 10.927000 391.803009
587 0 4 0.053000 4.851000 10.079000 392.507996
588 0 5 -1.000000 4.563000 9.227000 391.856995
589 0 1 -0.106000 3.946000 10.688000 392.718994
590 0 1 -0.106000 5.253000 9.679000 393.463013
591 0 1 -0.106000 6.792000 10.291000 391.584015
592 0 1 -0.106000 5.485000 11.295000 390.842010
593 0 1 -0.106000 5.432000 12.743000 392.889008
594 0 1 -0.106000 6.745000 11.744000 393.631989
595 0 1 -0.106000 8.276000 12.352000 391.742004
596 0 1 -0.106000 6.955000 13.338000 390.993988
597 0 1 -0.106000 6.876000 14.784000 393.032990
598 0 1 -0.106000 8.207000 13.812000 393.779999
599 0 1 -0.106000 8.383000 15.388000 391.128998
600 0 1 0.301100 9.723000 14.436000 391.884003
601 0 2 -0.628400 9.627000 15.918000 393.907013
602 0 3 0.248100 8.274000 16.853001 393.152008
603 0 3 0.248100 9.766000 17.466999 391.235992
604 0 3 0.248100 11.125000 16.548000 392.000000
605 0 1 -0.106000 10.997000 18.045000 394.007996
606 0 1 -0.106000 9.635000 18.955000 393.242004
607 0 1 -0.106000 11.126000 19.577000 391.325012
608 0 3 -0.159000 12.489000 18.671000 392.096985
609 0 4 0.053000 12.342000 20.167999 394.101013
610 0 4 0.053000 10.987000 21.079000 393.321991
611 0 4 0.053000 12.502000 21.702000 391.423004
612 0 4 0.053000 13.849000 20.780001 392.201996
613 0 4 0.053000 13.696000 22.260000 394.214996
614 0 4 0.053000 12.365000 23.197001 393.425995
615 0 4 0.053000 13.918000 23.816000 391.554993
616 0 4 0.053000 15.238000 22.861000 392.341003
617 0 4 0.053000 15.078000 24.299999 394.364014
618 0 4 0.053000 13.774000 25.271999 393.571014