LAMMPS data file containing the original structures and the polarizable gold

19698 atoms
15833 bonds
24336 angles
34704 dihedrals
0 impropers

7 atom types
7 bond types
13 angle types
15 dihedral types

-48.292946 106.886055 xlo xhi
-3.000000 64.865799 ylo yhi
-3.000000 90.655273 zlo zhi

Masses

1 12.011150
2 14.006700
3 12.011150
4 1.007970
5 79.908997
6 195.960007
7 1.000000

Atoms

1 1 1 -0.106000 51.428001 44.022999 92.667999
2 1 1 -0.106000 49.904999 44.025002 92.817001
3 1 1 -0.106000 49.254002 43.129002 91.760002
4 1 1 -0.106000 47.729000 43.153000 91.893997
5 1 1 -0.106000 47.076000 42.280998 90.819000
6 1 1 -0.106000 45.550999 42.313000 90.946999
7 1 1 -0.106000 44.898998 41.449001 89.866997
8 1 1 -0.106000 43.375000 41.466000 90.000000
9 1 1 -0.106000 42.729000 40.585999 88.927002
10 1 1 -0.106000 41.206001 40.570999 89.072998
11 1 1 -0.106000 40.570999 39.666000 88.011002
12 1 1 0.301100 39.035999 39.620998 88.178001
13 1 2 -0.628400 38.308998 38.752998 87.200996
14 1 3 0.248100 38.742001 37.339001 87.304001
15 1 3 0.248100 38.500999 39.228001 85.808998
16 1 3 0.248100 36.862999 38.820000 87.521004
17 1 1 -0.106000 52.078999 44.945000 93.703003
18 1 1 -0.106000 53.601002 44.962002 93.538002
19 1 1 -0.106000 54.250999 45.900002 94.560997
20 1 3 -0.159000 55.768002 45.926998 94.391998
21 1 4 0.053000 56.213001 46.613998 95.140999
22 1 4 0.053000 56.035000 46.285999 93.375000
23 1 4 0.053000 56.191002 44.910999 94.542999
24 1 4 0.053000 54.009998 45.557999 95.589996
25 1 4 0.053000 53.858002 46.931000 94.426003
26 1 4 0.053000 53.853001 45.310001 92.512001
27 1 4 0.053000 53.998001 43.931999 93.676003
28 1 4 0.053000 51.820000 44.591999 94.726997
29 1 4 0.053000 51.686001 45.978001 93.570000
30 1 4 0.053000 51.695000 44.377998 91.647003
31 1 4 0.053000 51.812000 42.987000 92.799004
32 1 4 0.053000 49.528000 45.064999 92.694000
33 1 4 0.053000 49.630001 43.660999 93.832001
34 1 4 0.053000 49.619999 42.085999 91.878998
35 1 4 0.053000 49.535999 43.494999 90.748001
36 1 4 0.053000 47.367001 44.199001 91.782997
37 1 4 0.053000 47.441002 42.778000 92.902000
38 1 4 0.053000 47.433998 41.233002 90.927002
39 1 4 0.053000 47.368000 42.657001 89.814003
40 1 4 0.053000 45.194000 43.362000 90.843002
41 1 4 0.053000 45.258999 41.932999 91.950996
42 1 4 0.053000 45.263000 40.402000 89.968002
43 1 4 0.053000 45.186001 41.832001 88.862999
44 1 4 0.053000 43.002998 42.508999 89.897003
45 1 4 0.053000 43.092999 41.083000 91.005997
46 1 4 0.053000 43.116001 39.549000 89.028999
47 1 4 0.053000 43.001999 40.973000 87.919998
48 1 4 0.053000 40.810001 41.605000 88.967003
49 1 4 0.053000 40.941002 40.188999 90.084000
50 1 4 0.053000 40.999001 38.648998 88.132004
51 1 4 0.053000 40.844002 40.062000 87.012001
52 1 4 0.053000 38.655998 40.667999 88.101997
53 1 4 0.053000 38.820999 39.271000 89.214996
54 1 4 0.053000 36.662998 38.459000 88.554001
55 1 4 0.053000 36.264000 38.192001 86.822998
56 1 4 0.053000 36.481998 39.863998 87.444000
57 1 4 0.053000 39.556000 39.119999 85.478996
58 1 4 0.053000 38.208000 40.297001 85.708000
59 1 4 0.053000 37.884998 38.633999 85.097000
60 1 4 0.053000 39.796001 37.205002 86.982002
61 1 4 0.053000 38.129002 36.683998 86.646004
62 1 4 0.053000 38.643002 36.966000 88.348999
63 1 5 -1.000000 39.220001 37.453999 85.983002
64 1 1 -0.106000 33.257000 12.671000 43.486000
65 1 1 -0.106000 34.486000 11.965000 44.066002
66 1 1 -0.106000 35.648998 12.947000 44.230000
67 1 1 -0.106000 36.868000 12.249000 44.837002
68 1 1 -0.106000 38.027000 13.232000 45.008999
69 1 1 -0.106000 39.241001 12.536000 45.625000
70 1 1 -0.106000 40.408001 13.513000 45.785000
71 1 1 -0.106000 41.625000 12.805000 46.384998
72 1 1 -0.106000 42.808998 13.767000 46.519001
73 1 1 -0.106000 44.030998 13.043000 47.096001
74 1 1 -0.106000 45.236000 14.003000 47.199001
75 1 1 0.301100 46.493999 13.398000 47.737000
76 1 2 -0.628400 46.969002 12.284000 46.882000
77 1 3 0.248100 46.307999 12.911000 49.125999
78 1 3 0.248100 47.535999 14.452000 47.749001
79 1 3 0.248100 30.844999 12.410000 42.799000
80 1 1 -0.106000 29.666000 11.440000 42.681999
81 1 1 -0.106000 28.420000 12.157000 42.153000
82 1 1 -0.106000 27.239000 11.196000 42.046001
83 1 3 -0.159000 26.350000 11.740000 41.662998
84 1 4 0.053000 26.996000 10.773000 43.043999
85 1 4 0.053000 27.479000 10.367000 41.346001
86 1 4 0.053000 28.629999 12.583000 41.147999
87 1 4 0.053000 28.143999 12.986000 42.841000
88 1 4 0.053000 29.443001 11.014000 43.686001
89 1 4 0.053000 29.937000 10.611000 41.993000
90 1 4 0.053000 31.077000 12.836000 41.797001
91 1 4 0.053000 30.569000 13.241000 43.486000
92 1 4 0.053000 31.846001 11.270000 44.347000
93 1 4 0.053000 32.370998 10.868000 42.661999
94 1 4 0.053000 32.962002 13.502000 44.166000
95 1 4 0.053000 33.508999 13.095000 42.488998
96 1 4 0.053000 34.792000 11.136000 43.390999
97 1 4 0.053000 34.226002 11.539000 45.062000
98 1 4 0.053000 35.335999 13.778000 44.898998
99 1 4 0.053000 35.918999 13.368000 43.236000
100 1 4 0.053000 37.186001 11.415000 44.169998
101 1 4 0.053000 36.592999 11.827000 45.828999
102 1 4 0.053000 37.707001 14.067000 45.673000
103 1 4 0.053000 38.304001 13.650000 44.015999
104 1 4 0.053000 39.555000 11.698000 44.963001
105 1 4 0.053000 38.966999 12.122000 46.619999
106 1 4 0.053000 40.103001 14.352000 46.446999
107 1 4 0.053000 40.679001 13.924000 44.786999
108 1 4 0.053000 41.916000 11.960000 45.723999
109 1 4 0.053000 41.360001 12.402000 47.388000
110 1 4 0.053000 42.528000 14.613000 47.183998
111 1 4 0.053000 43.063999 14.171000 45.514000
112 1 4 0.053000 44.271999 12.196000 46.421001
113 1 4 0.053000 43.757999 12.648000 48.096001
114 1 4 0.053000 44.931000 14.862000 47.841000
115 1 4 0.053000 45.429001 14.411000 46.179001
116 1 4 0.053000 47.724998 14.843000 46.723999
117 1 4 0.053000 48.501999 14.062000 48.143002
118 1 4 0.053000 47.234001 15.311000 48.391998
119 1 4 0.053000 45.599998 12.057000 49.171001
120 1 4 0.053000 45.924999 13.721000 49.785000
121 1 4 0.053000 47.269001 12.546000 49.551998
122 1 4 0.053000 46.275002 11.418000 46.909000
123 1 4 0.053000 47.955002 11.904000 47.231998
124 1 4 0.053000 47.083000 12.613000 45.825001
125 1 4 0.053000 46.758999 11.431000 47.984001
126 1 5 -1.000000 35.201000 19.382000 19.433001
127 1 1 -0.106000 34.429001 17.009001 19.784000
128 1 1 -0.106000 34.867001 15.547000 19.907000
129 1 1 -0.106000 33.667000 14.642000 20.191999
130 1 1 -0.106000 34.106998 13.182000 20.323000
131 1 1 -0.106000 32.907001 12.280000 20.617001
132 1 1 -0.106000 33.341000 10.817000 20.735001
133 1 1 -0.106000 32.133999 9.918000 21.013000
134 1 1 -0.106000 32.553001 8.448000 21.098000
135 1 1 -0.106000 31.334000 7.553000 21.350000
136 1 1 -0.106000 31.750000 6.066000 21.403000
137 1 1 -0.106000 30.634001 5.096000 21.629000
138 1 1 0.301100 29.622999 5.168000 20.547001
139 1 2 -0.628400 29.974001 5.326000 22.938000
140 1 3 0.248100 31.212000 3.731000 21.634001
141 1 3 0.248100 36.410999 20.295000 19.211000
142 1 3 0.248100 35.980000 21.763000 19.139000
143 1 1 -0.106000 37.191002 22.677999 18.937000
144 1 1 -0.106000 36.766998 24.143000 18.875999
145 1 1 -0.106000 37.661999 24.784000 18.732000
146 1 3 -0.159000 36.265999 24.438000 19.823000
147 1 4 0.053000 36.069000 24.306999 18.027000
148 1 4 0.053000 37.708000 22.413000 17.988001
149 1 4 0.053000 37.904999 22.547001 19.778999
150 1 4 0.053000 35.467999 22.039000 20.087000
151 1 4 0.053000 35.269001 21.896999 18.295000
152 1 4 0.053000 36.918999 20.010000 18.261999
153 1 4 0.053000 37.126999 20.165001 20.052999
154 1 4 0.053000 34.695000 19.674000 20.379999
155 1 4 0.053000 34.484001 19.502001 18.591000
156 1 4 0.053000 36.358002 17.804001 20.365999
157 1 4 0.053000 36.132999 17.614000 18.580999
158 1 4 0.053000 33.702000 17.110001 18.948000
159 1 4 0.053000 33.932999 17.320000 20.731001
160 1 4 0.053000 35.599998 15.452000 20.737000
161 1 4 0.053000 35.355999 15.228000 18.958000
162 1 4 0.053000 32.930000 14.733000 19.362000
163 1 4 0.053000 33.180000 14.965000 21.138000
164 1 4 0.053000 34.846001 13.092000 21.150999
165 1 4 0.053000 34.589001 12.858000 19.374001
166 1 4 0.053000 32.167000 12.376000 19.792000
167 1 4 0.053000 32.428001 12.600000 21.569000
168 1 4 0.053000 34.078999 10.712000 21.559000
169 1 4 0.053000 33.820999 10.502000 19.782000
170 1 4 0.053000 31.395000 10.038000 20.190001
171 1 4 0.053000 31.658001 10.225000 21.969999
172 1 4 0.053000 33.287998 8.317000 21.923000
173 1 4 0.053000 33.034000 8.150000 20.139999
174 1 4 0.053000 30.614000 7.720000 20.523001
175 1 4 0.053000 30.868999 7.863000 22.308001
176 1 4 0.053000 32.509998 5.956000 22.211000
177 1 4 0.053000 32.257999 5.825000 20.440001
178 1 4 0.053000 31.709000 3.502000 20.664000
179 1 4 0.053000 30.427000 2.959000 21.799999
180 1 4 0.053000 31.971001 3.618000 22.441999
181 1 4 0.053000 29.445000 6.302000 22.965000
182 1 4 0.053000 30.715000 5.304000 23.768000
183 1 4 0.053000 29.207001 4.546000 23.139999
184 1 4 0.053000 29.082001 6.137000 20.552000
185 1 4 0.053000 28.849001 4.378000 20.669001
186 1 4 0.053000 30.097000 5.034000 19.549000
187 1 4 0.053000 28.698999 5.590000 21.524000
188 1 4 0.053000 34.455002 6.791000 105.383003
189 1 5 -1.000000 34.727001 6.183000 104.004997
190 2 3 -0.159000 38.939999 21.872999 70.349998
191 2 1 -0.106000 38.308998 23.113001 70.973000
192 2 1 -0.106000 39.229000 23.736000 72.029999
193 2 1 -0.106000 38.573002 24.980000 72.640999
194 2 1 -0.106000 39.452999 25.701000 73.671997
195 2 1 -0.106000 39.751999 24.861000 74.926003
196 2 1 -0.106000 40.486000 25.712999 75.966003
197 2 1 -0.106000 40.743999 24.948000 77.274002
198 2 1 -0.106000 41.297001 25.912001 78.330002
199 2 1 -0.106000 41.450001 25.267000 79.721001
200 2 1 -0.106000 41.701000 26.371000 80.760002
201 2 1 0.301100 41.674999 25.864000 82.224998
202 2 2 -0.628400 41.571999 26.945000 83.271004
203 2 3 0.248100 42.782001 27.805000 83.220001
204 2 3 0.248100 41.536999 26.306000 84.610001
205 2 1 0.301100 40.363998 27.823000 83.092003
206 2 1 -0.106000 38.993999 27.097000 83.232002
207 2 1 -0.106000 37.841000 27.754000 82.444000
208 2 1 -0.106000 38.043999 27.549999 80.928001
209 2 1 -0.106000 36.820000 27.893000 80.072998
210 2 1 -0.106000 37.099998 27.483000 78.616997
211 2 1 -0.106000 35.890999 27.687000 77.698997
212 2 1 -0.106000 36.201000 27.143000 76.295998
213 2 1 -0.106000 34.994999 27.271999 75.359001
214 2 1 -0.106000 35.308998 26.652000 73.989998
215 2 1 -0.106000 34.110001 26.750999 73.043999
216 2 3 -0.159000 34.423000 26.111000 71.695000
217 2 4 0.053000 38.250000 21.447001 69.589996
218 2 4 0.053000 39.129002 21.103001 71.127998
219 2 4 0.053000 39.897999 22.136000 69.851997
220 2 4 0.053000 37.341999 22.826000 71.441002
221 2 4 0.053000 38.106998 23.854000 70.168999
222 2 4 0.053000 40.193001 24.025000 71.555000
223 2 4 0.053000 39.425999 22.983999 72.821999
224 2 4 0.053000 37.609001 24.697001 73.116997
225 2 4 0.053000 38.354000 25.702000 71.822998
226 2 4 0.053000 38.896999 26.612000 73.984001
227 2 4 0.053000 40.405998 26.024000 73.196999
228 2 4 0.053000 40.368999 23.975000 74.667999
229 2 4 0.053000 38.789001 24.518000 75.363998
230 2 4 0.053000 39.841999 26.593000 76.192001
231 2 4 0.053000 41.452000 26.079000 75.553001
232 2 4 0.053000 41.444000 24.101000 77.103996
233 2 4 0.053000 39.775002 24.545000 77.644997
234 2 4 0.053000 40.556999 26.740000 78.413002
235 2 4 0.053000 42.269001 26.341999 78.003998
236 2 4 0.053000 42.257999 24.504999 79.723999
237 2 4 0.053000 40.488998 24.771000 79.981003
238 2 4 0.053000 40.868000 27.065001 80.603996
239 2 4 0.053000 42.650002 26.903999 80.539001
240 2 4 0.053000 42.584999 25.240999 82.388000
241 2 4 0.053000 40.830002 25.158001 82.329002
242 2 4 0.053000 40.431999 28.351999 82.128998
243 2 4 0.053000 40.361000 28.667000 83.820000
244 2 4 0.053000 38.745998 27.033001 84.314003
245 2 4 0.053000 39.026001 26.056999 82.866997
246 2 4 0.053000 37.716000 28.827000 82.705002
247 2 4 0.053000 36.911999 27.214001 82.733002
248 2 4 0.053000 38.259998 26.469999 80.760002
249 2 4 0.053000 38.901001 28.146999 80.563004
250 2 4 0.053000 36.588001 28.978001 80.141998
251 2 4 0.053000 35.946999 27.311001 80.444000
252 2 4 0.053000 37.361000 26.402000 78.602997
253 2 4 0.053000 37.967999 28.058001 78.223000
254 2 4 0.053000 35.631001 28.766001 77.648003
255 2 4 0.053000 35.022999 27.127001 78.114998
256 2 4 0.053000 36.471001 26.066999 76.382004
257 2 4 0.053000 37.067001 27.691999 75.864998
258 2 4 0.053000 34.731998 28.344999 75.237000
259 2 4 0.053000 34.127998 26.736000 75.804001
260 2 4 0.053000 35.569000 25.580000 74.133003
261 2 4 0.053000 36.181000 27.176001 73.538002
262 2 4 0.053000 33.844002 27.819000 72.886002
263 2 4 0.053000 33.235001 26.229000 73.492996
264 2 4 0.053000 35.282001 26.624001 71.212997
265 2 4 0.053000 33.537998 26.193001 71.028999
266 2 4 0.053000 34.669998 25.034000 71.825996
267 2 4 0.053000 42.459999 25.712999 84.796997
268 2 4 0.053000 40.678001 25.607000 84.707001
269 2 4 0.053000 41.450001 27.066999 85.417999
270 2 4 0.053000 43.710999 27.200001 83.327003
271 2 4 0.053000 42.773998 28.559999 84.038002
272 2 4 0.053000 42.846001 28.368000 82.264999
273 2 5 -1.000000 43.523998 26.870001 83.704002
274 1 1 -0.106000 32.084999 11.697000 43.347000
275 1 1 -0.106000 33.257000 12.671000 43.486000
276 1 1 -0.106000 34.486000 11.965000 44.066002
277 1 1 -0.106000 35.648998 12.947000 44.230000
278 1 1 -0.106000 36.868000 12.249000 44.837002
279 1 1 -0.106000 38.027000 13.232000 45.008999
280 1 1 -0.106000 39.241001 12.536000 45.625000
281 1 1 -0.106000 40.408001 13.513000 45.785000
282 1 1 -0.106000 41.625000 12.805000 46.384998
283 1 1 -0.106000 42.808998 13.767000 46.519001
284 1 1 -0.106000 44.030998 13.043000 47.096001
285 1 1 0.301100 45.236000 14.003000 47.199001
286 1 2 -0.628400 46.493999 13.398000 47.737000
287 1 3 0.248100 46.969002 12.284000 46.882000
288 1 3 0.248100 46.307999 12.911000 49.125999
289 1 3 0.248100 47.535999 14.452000 47.749001
290 1 1 -0.106000 30.844999 12.410000 42.799000
291 1 1 -0.106000 29.666000 11.440000 42.681999
292 1 1 -0.106000 28.420000 12.157000 42.153000
293 1 3 -0.159000 27.239000 11.196000 42.046001
294 1 4 0.053000 26.350000 11.740000 41.662998
295 1 4 0.053000 26.996000 10.773000 43.043999
296 1 4 0.053000 27.479000 10.367000 41.346001
297 1 4 0.053000 28.629999 12.583000 41.147999
298 1 4 0.053000 28.143999 12.986000 42.841000
299 1 4 0.053000 29.443001 11.014000 43.686001
300 1 4 0.053000 29.937000 10.611000 41.993000
301 1 4 0.053000 31.077000 12.836000 41.797001
302 1 4 0.053000 30.569000 13.241000 43.486000
303 1 4 0.053000 31.846001 11.270000 44.347000
304 1 4 0.053000 32.370998 10.868000 42.661999
305 1 4 0.053000 32.962002 13.502000 44.166000
306 1 4 0.053000 33.508999 13.095000 42.488998
307 1 4 0.053000 34.792000 11.136000 43.390999
308 1 4 0.053000 34.226002 11.539000 45.062000
309 1 4 0.053000 35.335999 13.778000 44.898998
310 1 4 0.053000 35.918999 13.368000 43.236000
311 1 4 0.053000 37.186001 11.415000 44.169998
312 1 4 0.053000 36.592999 11.827000 45.828999
313 1 4 0.053000 37.707001 14.067000 45.673000
314 1 4 0.053000 38.304001 13.650000 44.015999
315 1 4 0.053000 39.555000 11.698000 44.963001
316 1 4 0.053000 38.966999 12.122000 46.619999
317 1 4 0.053000 40.103001 14.352000 46.446999
318 1 4 0.053000 40.679001 13.924000 44.786999
319 1 4 0.053000 41.916000 11.960000 45.723999
320 1 4 0.053000 41.360001 12.402000 47.388000
321 1 4 0.053000 42.528000 14.613000 47.183998
322 1 4 0.053000 43.063999 14.171000 45.514000
323 1 4 0.053000 44.271999 12.196000 46.421001
324 1 4 0.053000 43.757999 12.648000 48.096001
325 1 4 0.053000 44.931000 14.862000 47.841000
326 1 4 0.053000 45.429001 14.411000 46.179001
327 1 4 0.053000 47.724998 14.843000 46.723999
328 1 4 0.053000 48.501999 14.062000 48.143002
329 1 4 0.053000 47.234001 15.311000 48.391998
330 1 4 0.053000 45.599998 12.057000 49.171001
331 1 4 0.053000 45.924999 13.721000 49.785000
332 1 4 0.053000 47.269001 12.546000 49.551998
333 1 4 0.053000 46.275002 11.418000 46.909000
334 1 4 0.053000 47.955002 11.904000 47.231998
335 1 4 0.053000 47.083000 12.613000 45.825001
336 1 5 -1.000000 46.758999 11.431000 47.984001
337 1 1 -0.106000 35.634998 17.917000 19.528000
338 1 1 -0.106000 34.429001 17.009001 19.784000
339 1 1 -0.106000 34.867001 15.547000 19.907000
340 1 1 -0.106000 33.667000 14.642000 20.191999
341 1 1 -0.106000 34.106998 13.182000 20.323000
342 1 1 -0.106000 32.907001 12.280000 20.617001
343 1 1 -0.106000 33.341000 10.817000 20.735001
344 1 1 -0.106000 32.133999 9.918000 21.013000
345 1 1 -0.106000 32.553001 8.448000 21.098000
346 1 1 -0.106000 31.334000 7.553000 21.350000
347 1 1 -0.106000 31.750000 6.066000 21.403000
348 1 1 0.301100 30.634001 5.096000 21.629000
349 1 2 -0.628400 29.622999 5.168000 20.547001
350 1 3 0.248100 29.974001 5.326000 22.938000
351 1 3 0.248100 31.212000 3.731000 21.634001
352 1 3 0.248100 36.410999 20.295000 19.211000
353 1 1 -0.106000 35.980000 21.763000 19.139000
354 1 1 -0.106000 37.191002 22.677999 18.937000
355 1 1 -0.106000 36.766998 24.143000 18.875999
356 1 3 -0.159000 37.661999 24.784000 18.732000
357 1 4 0.053000 36.265999 24.438000 19.823000
358 1 4 0.053000 36.069000 24.306999 18.027000
359 1 4 0.053000 37.708000 22.413000 17.988001
360 1 4 0.053000 37.904999 22.547001 19.778999
361 1 4 0.053000 35.467999 22.039000 20.087000
362 1 4 0.053000 35.269001 21.896999 18.295000
363 1 4 0.053000 36.918999 20.010000 18.261999
364 1 4 0.053000 37.126999 20.165001 20.052999
365 1 4 0.053000 34.695000 19.674000 20.379999
366 1 4 0.053000 34.484001 19.502001 18.591000
367 1 4 0.053000 36.358002 17.804001 20.365999
368 1 4 0.053000 36.132999 17.614000 18.580999
369 1 4 0.053000 33.702000 17.110001 18.948000
370 1 4 0.053000 33.932999 17.320000 20.731001
371 1 4 0.053000 35.599998 15.452000 20.737000
372 1 4 0.053000 35.355999 15.228000 18.958000
373 1 4 0.053000 32.930000 14.733000 19.362000
374 1 4 0.053000 33.180000 14.965000 21.138000
375 1 4 0.053000 34.846001 13.092000 21.150999
376 1 4 0.053000 34.589001 12.858000 19.374001
377 1 4 0.053000 32.167000 12.376000 19.792000
378 1 4 0.053000 32.428001 12.600000 21.569000
379 1 4 0.053000 34.078999 10.712000 21.559000
380 1 4 0.053000 33.820999 10.502000 19.782000
381 1 4 0.053000 31.395000 10.038000 20.190001
382 1 4 0.053000 31.658001 10.225000 21.969999
383 1 4 0.053000 33.287998 8.317000 21.923000
384 1 4 0.053000 33.034000 8.150000 20.139999
385 1 4 0.053000 30.614000 7.720000 20.523001
386 1 4 0.053000 30.868999 7.863000 22.308001
387 1 4 0.053000 32.509998 5.956000 22.211000
388 1 4 0.053000 32.257999 5.825000 20.440001
389 1 4 0.053000 31.709000 3.502000 20.664000
390 1 4 0.053000 30.427000 2.959000 21.799999
391 1 4 0.053000 31.971001 3.618000 22.441999
392 1 4 0.053000 29.445000 6.302000 22.965000
393 1 4 0.053000 30.715000 5.304000 23.768000
394 1 4 0.053000 29.207001 4.546000 23.139999
395 1 4 0.053000 29.082001 6.137000 20.552000
396 1 4 0.053000 28.849001 4.378000 20.669001
397 1 4 0.053000 30.097000 5.034000 19.549000
398 1 4 0.053000 28.698999 5.590000 21.524000
399 1 5 -1.000000 34.455002 6.791000 105.383003
400 1 1 -0.106000 36.167000 6.460000 103.564003
401 1 1 -0.106000 36.429001 5.874000 102.174004
402 1 1 -0.106000 37.859001 6.175000 101.719002
403 1 1 -0.106000 38.118000 5.598000 100.325996
404 1 1 -0.106000 39.543999 5.908000 99.867996
405 1 1 -0.106000 39.812000 5.320000 98.481003
406 1 1 -0.106000 41.245998 5.619000 98.037003
407 1 1 -0.106000 41.534000 5.005000 96.664001
408 1 1 -0.106000 42.980000 5.287000 96.239998
409 1 1 -0.106000 43.284000 4.639000 94.870003
410 1 1 -0.106000 44.676998 4.838000 94.362000
411 1 1 0.301100 45.680000 4.257000 95.286003
412 1 2 -0.628400 44.974998 6.275000 94.148003
413 1 3 0.248100 44.787998 4.141000 93.057999
414 1 3 0.248100 33.005001 6.544000 105.811996
415 1 3 0.248100 32.726002 7.174000 107.179001
416 1 1 -0.106000 31.270000 6.944000 107.599998
417 1 1 -0.106000 30.986000 7.580000 108.958000
418 1 1 -0.106000 29.927000 7.402000 109.237000
419 1 3 -0.159000 31.164000 8.675000 108.915001
420 1 4 0.053000 31.641001 7.133000 109.736000
421 1 4 0.053000 31.065001 5.854000 107.662003
422 1 4 0.053000 30.587999 7.393000 106.845001
423 1 4 0.053000 32.922001 8.267000 107.125000
424 1 4 0.053000 33.404999 6.724000 107.936996
425 1 4 0.053000 32.816002 5.448000 105.861000
426 1 4 0.053000 32.320000 6.992000 105.056999
427 1 4 0.053000 34.638000 7.888000 105.339996
428 1 4 0.053000 35.145000 6.341000 106.129997
429 1 4 0.053000 34.028000 6.631000 103.264999
430 1 4 0.053000 34.555000 5.085000 104.042999
431 1 4 0.053000 36.873001 6.010000 104.295998
432 1 4 0.053000 36.333000 7.560000 103.532997
433 1 4 0.053000 35.715000 6.319000 101.446999
434 1 4 0.053000 36.272999 4.772000 102.202003
435 1 4 0.053000 38.577999 5.731000 102.443001
436 1 4 0.053000 38.012001 7.277000 101.694000
437 1 4 0.053000 37.396000 6.040000 99.601997
438 1 4 0.053000 37.970001 4.496000 100.351997
439 1 4 0.053000 40.264000 5.471000 100.596001
440 1 4 0.053000 39.692001 7.010000 99.835999
441 1 4 0.053000 39.098000 5.754000 97.747002
442 1 4 0.053000 39.661999 4.218000 98.517998
443 1 4 0.053000 41.952999 5.192000 98.781998
444 1 4 0.053000 41.396000 6.720000 97.989998
445 1 4 0.053000 40.834999 5.431000 95.911003
446 1 4 0.053000 41.376999 3.905000 96.717003
447 1 4 0.053000 43.650002 4.868000 97.018997
448 1 4 0.053000 43.118000 6.387000 96.191002
449 1 4 0.053000 42.555000 5.050000 94.133003
450 1 4 0.053000 43.076000 3.548000 94.961998
451 1 4 0.053000 44.587002 3.051000 93.166000
452 1 4 0.053000 45.806999 4.253000 92.625000
453 1 4 0.053000 44.062000 4.551000 92.319000
454 1 4 0.053000 44.993000 6.838000 95.106003
455 1 4 0.053000 44.220001 6.744000 93.478996
456 1 4 0.053000 45.977001 6.410000 93.684998
457 1 4 0.053000 45.715000 4.802000 96.251999
458 1 4 0.053000 46.703999 4.320000 94.855003
459 1 4 0.053000 45.459000 3.186000 95.492996
460 1 4 0.053000 46.168999 5.565000 95.476997
461 1 4 0.053000 14.092000 6.306000 53.549000
462 1 5 -1.000000 13.656000 6.219000 52.084999
463 1 1 -0.106000 14.261000 6.775000 49.702999
464 1 1 -0.106000 15.302000 7.420000 48.785999
465 1 1 -0.106000 14.847000 7.365000 47.326000
466 1 1 -0.106000 15.884000 8.019000 46.410999
467 1 1 -0.106000 15.440000 7.952000 44.948002
468 1 1 -0.106000 16.489000 8.593000 44.035999
469 1 1 -0.106000 16.069000 8.501000 42.567001
470 1 1 -0.106000 17.139000 9.121000 41.660000
471 1 1 -0.106000 16.733000 8.999000 40.174999
472 1 1 -0.106000 17.714001 9.560000 39.194000
473 1 1 -0.106000 19.025000 8.874000 39.285999
474 1 1 0.301100 17.903000 11.018000 39.391998
475 1 2 -0.628400 17.170000 9.342000 37.832001
476 1 3 0.248100 13.022000 5.717000 54.473999
477 1 3 0.248100 13.448000 5.826000 55.939999
478 1 3 0.248100 12.370000 5.255000 56.867001
479 1 1 -0.106000 12.787000 5.372000 58.330002
480 1 1 -0.106000 11.989000 4.955000 58.979000
481 1 1 -0.106000 12.946000 6.438000 58.601002
482 1 3 -0.159000 13.725000 4.806000 58.508999
483 1 4 0.053000 12.197000 4.184000 56.625999
484 1 4 0.053000 11.418000 5.812000 56.720001
485 1 4 0.053000 13.618000 6.896000 56.193001
486 1 4 0.053000 14.398000 5.268000 56.090000
487 1 4 0.053000 12.857000 4.648000 54.213001
488 1 4 0.053000 12.068000 6.273000 54.327999
489 1 4 0.053000 14.256000 7.374000 53.818001
490 1 4 0.053000 15.047000 5.752000 53.685001
491 1 4 0.053000 12.696000 6.768000 51.958000
492 1 4 0.053000 13.499000 5.154000 51.806000
493 1 4 0.053000 15.673000 6.292000 51.280998
494 1 4 0.053000 14.866000 7.903000 51.452000
495 1 4 0.053000 13.295000 7.315000 49.592999
496 1 4 0.053000 14.114000 5.712000 49.409000
497 1 4 0.053000 16.271000 6.883000 48.891998
498 1 4 0.053000 15.448000 8.481000 49.084999
499 1 4 0.053000 13.876000 7.899000 47.221001
500 1 4 0.053000 14.706000 6.303000 47.025002
501 1 4 0.053000 16.855000 7.487000 46.521999
502 1 4 0.053000 16.021000 9.082000 46.707001
503 1 4 0.053000 14.471000 8.484000 44.827999
504 1 4 0.053000 15.303000 6.887000 44.657001
505 1 4 0.053000 17.458000 8.064000 44.172001
506 1 4 0.053000 16.621000 9.661000 44.319000
507 1 4 0.053000 15.103000 9.033000 42.422001
508 1 4 0.053000 15.933000 7.431000 42.293999
509 1 4 0.053000 18.091999 8.583000 41.842999
510 1 4 0.053000 17.260000 10.186000 41.946999
511 1 4 0.053000 15.748000 9.508000 40.049999
512 1 4 0.053000 16.572001 7.918000 39.959000
513 1 4 0.053000 17.021999 8.257000 37.627998
514 1 4 0.053000 17.857000 9.740000 37.053001
515 1 4 0.053000 16.187000 9.850000 37.705002
516 1 4 0.053000 18.391001 11.241000 40.363998
517 1 4 0.053000 16.929001 11.555000 39.355000
518 1 4 0.053000 18.562000 11.444000 38.603001
519 1 4 0.053000 19.532000 9.081000 40.250999
520 1 4 0.053000 19.716999 9.227000 38.488998
521 1 4 0.053000 18.908001 7.773000 39.176998
522 1 4 0.053000 19.573999 10.111000 39.680000
523 1 4 0.053000 31.358999 39.710999 33.550999
524 1 4 0.053000 30.525999 38.466999 33.868999
525 1 5 -1.000000 31.430000 37.261002 34.139000
526 1 1 -0.106000 31.497000 34.799000 34.672001
527 1 1 -0.106000 30.662001 33.548000 34.952999
528 1 1 -0.106000 31.565001 32.334999 35.185001
529 1 1 -0.106000 30.733999 31.086000 35.480999
530 1 1 -0.106000 31.643000 29.879999 35.729000
531 1 1 -0.106000 30.820999 28.631001 36.058998
532 1 1 -0.106000 31.742001 27.434999 36.332001
533 1 1 -0.106000 30.916000 26.183001 36.699001
534 1 1 -0.106000 31.714001 24.954000 37.001999
535 1 1 -0.106000 32.617001 25.165001 38.159000
536 1 1 -0.106000 32.508999 24.523001 35.826000
537 1 1 0.301100 30.764999 23.868999 37.345001
538 1 2 -0.628400 30.455000 40.910000 33.247002
539 1 3 0.248100 31.288000 42.147999 32.905998
540 1 3 0.248100 30.385000 43.341999 32.583000
541 1 3 0.248100 31.212999 44.576000 32.231998
542 1 1 -0.106000 30.535999 45.424000 31.999001
543 1 1 -0.106000 31.848000 44.372002 31.343000
544 1 1 -0.106000 31.862000 44.860001 33.087002
545 1 3 -0.159000 29.743999 43.576000 33.459999
546 1 4 0.053000 29.731001 43.092999 31.719000
547 1 4 0.053000 31.929001 41.924999 32.023998
548 1 4 0.053000 31.941999 42.401001 33.770000
549 1 4 0.053000 29.816000 41.124001 34.132999
550 1 4 0.053000 29.798000 40.660999 32.383999
551 1 4 0.053000 31.997999 39.504002 32.664001
552 1 4 0.053000 32.014000 39.949001 34.417999
553 1 4 0.053000 29.867001 38.237999 33.001999
554 1 4 0.053000 29.891001 38.661999 34.761002
555 1 4 0.053000 32.089001 37.478001 35.008999
556 1 4 0.053000 32.066002 37.074001 33.244999
557 1 4 0.053000 29.931000 35.803001 33.563000
558 1 4 0.053000 29.965000 36.189999 35.330002
559 1 4 0.053000 32.162998 35.001999 35.540001
560 1 4 0.053000 32.126999 34.625000 33.771999
561 1 4 0.053000 29.993999 33.348000 34.085999
562 1 4 0.053000 30.035999 33.721001 35.855999
563 1 4 0.053000 32.237000 32.540001 36.048000
564 1 4 0.053000 32.187000 32.159000 34.279999
565 1 4 0.053000 30.061001 30.872000 34.622002
566 1 4 0.053000 30.112000 31.267000 36.386002
567 1 4 0.053000 32.320999 30.106001 36.581001
568 1 4 0.053000 32.258999 29.688999 34.821999
569 1 4 0.053000 30.145000 28.393999 35.209000
570 1 4 0.053000 30.204000 28.830999 36.963001
571 1 4 0.053000 32.415001 27.709999 37.169998
572 1 4 0.053000 32.348000 27.250999 35.421001
573 1 4 0.053000 30.219000 25.976000 35.853001
574 1 4 0.053000 30.288000 26.441999 37.583000
575 1 4 0.053000 30.150999 24.138000 38.234001
576 1 4 0.053000 31.301001 22.922001 37.581001
577 1 4 0.053000 30.069000 23.660000 36.500000
578 1 4 0.053000 33.300999 25.260000 35.571999
579 1 4 0.053000 31.858999 24.382999 34.933998
580 1 4 0.053000 33.028000 23.559999 36.028000
581 1 4 0.053000 33.417000 25.900000 37.929001
582 1 4 0.053000 33.133999 24.219999 38.439999
583 1 4 0.053000 32.050999 25.525000 39.047001
584 1 4 0.053000 33.695000 24.961000 37.273998
585 1 4 0.053000 15.847000 44.553001 80.328003
586 1 4 0.053000 16.034000 43.034000 80.362000
587 1 4 0.053000 17.438999 42.648998 79.891998
588 1 5 -1.000000 17.615000 41.127998 79.901001
589 1 1 -0.106000 19.181999 39.219002 79.403999
590 1 1 -0.106000 20.573000 38.832001 78.899002
591 1 1 -0.106000 20.754999 37.313000 78.911003
592 1 1 -0.106000 22.153999 36.933998 78.419998
593 1 1 -0.106000 22.357000 35.417000 78.459999
594 1 1 -0.106000 23.770000 35.049000 77.991997
595 1 1 -0.106000 23.989000 33.521000 78.065002
596 1 1 -0.106000 25.344000 33.047001 77.643997
597 1 1 -0.106000 26.410000 33.623001 78.499001
598 1 1 -0.106000 25.615999 33.377998 76.223999
599 1 1 -0.106000 25.375999 31.572001 77.792999
600 1 1 0.301100 14.430000 44.938000 80.764999
601 1 2 -0.628400 14.236000 46.456001 80.708000
602 1 3 0.248100 12.813000 46.841000 81.125000
603 1 3 0.248100 12.613000 48.352001 81.058998
604 1 3 0.248100 11.575000 48.603001 81.363998
605 1 1 -0.106000 12.779000 48.716999 80.024002
606 1 1 -0.106000 13.320000 48.865002 81.746002
607 1 1 -0.106000 12.621000 46.497002 82.165001
608 1 3 -0.159000 12.080000 46.353001 80.446999
609 1 4 0.053000 14.420000 46.808998 79.668999
610 1 4 0.053000 14.967000 46.945999 81.388000
611 1 4 0.053000 14.254000 44.578999 81.803001
612 1 4 0.053000 13.694000 44.450001 80.086998
613 1 4 0.053000 16.018999 44.917999 79.291000
614 1 4 0.053000 16.587999 45.033001 81.003998
615 1 4 0.053000 15.284000 42.560001 79.690002
616 1 4 0.053000 15.873000 42.661999 81.397003
617 1 4 0.053000 18.195999 43.113998 80.561996
618 1 4 0.053000 17.594999 43.027000 78.857002
619 1 4 0.053000 16.851999 40.666000 79.237000
620 1 4 0.053000 17.471001 40.745998 80.935997
621 1 4 0.053000 19.778999 41.199001 80.066002
622 1 4 0.053000 19.152000 41.125999 78.371002
623 1 4 0.053000 18.412001 38.759998 78.745003
624 1 4 0.053000 19.045000 38.834000 80.439003
625 1 4 0.053000 21.341999 39.298000 79.555000
626 1 4 0.053000 20.709999 39.212002 77.862000
627 1 4 0.053000 19.990999 36.841000 78.254997
628 1 4 0.053000 20.617001 36.938000 79.948997
629 1 4 0.053000 22.912001 37.419998 79.072998
630 1 4 0.053000 22.292000 37.299000 77.377998
631 1 4 0.053000 21.607000 34.923000 77.804001