LAMMPS data file containing the original structures and the polarizable gold

19782 atoms
15854 bonds
24252 angles
34578 dihedrals
0 impropers

7 atom types
7 bond types
13 angle types
15 dihedral types

-48.717133 106.461868 xlo xhi
-3.000000 61.997501 ylo yhi
-3.000000 96.387703 zlo zhi

Masses

1 12.011150
2 14.006700
3 12.011150
4 1.007970
5 79.908997
6 195.960007
7 1.000000

Atoms

1 1 1 -0.106000 49.351002 20.392000 43.021999
2 1 1 -0.106000 49.924999 20.785000 41.659000
3 1 1 -0.106000 49.090000 20.186001 40.523998
4 1 1 -0.106000 49.681000 20.556999 39.160999
5 1 1 -0.106000 48.863998 19.934999 38.027000
6 1 1 -0.106000 49.459999 20.299000 36.666000
7 1 1 -0.106000 48.648998 19.667999 35.533001
8 1 1 -0.106000 49.233002 20.041000 34.168999
9 1 1 -0.106000 48.407001 19.421000 33.040001
10 1 1 -0.106000 48.964001 19.816000 31.670000
11 1 1 -0.106000 48.113998 19.212999 30.547001
12 1 1 0.301100 48.653999 19.639000 29.164000
13 1 2 -0.628400 47.889999 19.118000 27.988001
14 1 3 0.248100 46.483002 19.586000 28.004999
15 1 3 0.248100 47.917999 17.636000 27.938999
16 1 3 0.248100 48.536999 19.636999 26.759001
17 1 1 -0.106000 50.205002 20.962999 44.158001
18 1 1 -0.106000 49.645000 20.549999 45.521999
19 1 1 -0.106000 50.509998 21.104000 46.659000
20 1 3 -0.159000 49.959999 20.684000 48.020000
21 1 4 0.053000 50.605000 21.096001 48.824001
22 1 4 0.053000 49.945999 19.577000 48.104000
23 1 4 0.053000 48.928001 21.073999 48.153999
24 1 4 0.053000 50.533001 22.214001 46.605999
25 1 4 0.053000 51.548000 20.719999 46.558998
26 1 4 0.053000 49.624001 19.438999 45.587002
27 1 4 0.053000 48.606998 20.934999 45.625000
28 1 4 0.053000 50.223999 22.073999 44.084999
29 1 4 0.053000 51.245998 20.580999 44.060001
30 1 4 0.053000 49.333000 19.283001 43.104000
31 1 4 0.053000 48.311001 20.775000 43.110001
32 1 4 0.053000 50.969002 20.407000 41.580002
33 1 4 0.053000 49.937000 21.893000 41.564999
34 1 4 0.053000 48.046001 20.563000 40.591000
35 1 4 0.053000 49.078999 19.077000 40.625999
36 1 4 0.053000 50.727001 20.186001 39.102001
37 1 4 0.053000 49.686001 21.665001 39.050999
38 1 4 0.053000 47.814999 20.304001 38.082001
39 1 4 0.053000 48.859001 18.827999 38.141998
40 1 4 0.053000 50.509998 19.931999 36.612999
41 1 4 0.053000 49.459999 21.405001 36.549000
42 1 4 0.053000 47.598000 20.030001 35.591999
43 1 4 0.053000 48.653000 18.561001 35.646000
44 1 4 0.053000 50.283001 19.680000 34.102001
45 1 4 0.053000 49.228001 21.148001 34.061001
46 1 4 0.053000 47.355999 19.777000 33.122002
47 1 4 0.053000 48.417999 18.313000 33.139999
48 1 4 0.053000 50.013000 19.458000 31.577000
49 1 4 0.053000 48.955002 20.924999 31.580000
50 1 4 0.053000 47.073002 19.572001 30.679001
51 1 4 0.053000 48.134998 18.108000 30.652000
52 1 4 0.053000 49.716000 19.302999 29.097000
53 1 4 0.053000 48.661999 20.753000 29.135000
54 1 4 0.053000 48.528999 20.749001 26.740000
55 1 4 0.053000 48.011002 19.281000 25.844000
56 1 4 0.053000 49.597000 19.301001 26.690001
57 1 4 0.053000 47.368999 17.184999 28.792999
58 1 4 0.053000 48.963001 17.254999 27.952000
59 1 4 0.053000 47.425999 17.257999 27.014000
60 1 4 0.053000 45.914001 19.150000 28.853001
61 1 4 0.053000 45.948002 19.277000 27.079000
62 1 4 0.053000 46.431999 20.695000 28.079000
63 1 5 -1.000000 46.101002 18.235001 28.134001
64 1 1 -0.106000 35.319000 52.438000 28.969000
65 1 1 -0.106000 35.063000 51.146999 29.750000
66 1 1 -0.106000 36.382999 50.495998 30.171000
67 1 1 -0.106000 36.125999 49.189999 30.929001
68 1 1 -0.106000 37.445000 48.523998 31.325001
69 1 1 -0.106000 37.187000 47.214001 32.074001
70 1 1 -0.106000 38.507000 46.543999 32.460999
71 1 1 -0.106000 38.254002 45.241001 33.223000
72 1 1 -0.106000 39.577000 44.584999 33.622002
73 1 1 -0.106000 39.334999 43.297001 34.414001
74 1 1 -0.106000 40.665001 42.660999 34.832001
75 1 1 0.301100 40.422001 41.381001 35.660999
76 1 2 -0.628400 41.655998 40.681999 36.138000
77 1 3 0.248100 42.467999 41.555000 37.020000
78 1 3 0.248100 42.487000 40.216000 35.000999
79 1 3 0.248100 41.231998 39.495998 36.921001
80 1 1 -0.106000 34.000000 53.073002 28.517000
81 1 1 -0.106000 34.257000 54.352001 27.716000
82 1 1 -0.106000 32.938999 54.977001 27.247000
83 1 3 -0.159000 33.192001 56.247002 26.438000
84 1 4 0.053000 32.223000 56.676998 26.108999
85 1 4 0.053000 33.803001 56.014999 25.540001
86 1 4 0.053000 33.723999 56.999001 27.059000
87 1 4 0.053000 32.308998 55.230000 28.127001
88 1 4 0.053000 32.387001 54.251999 26.610001
89 1 4 0.053000 34.881001 54.108002 26.827999
90 1 4 0.053000 34.806000 55.081001 28.351999
91 1 4 0.053000 33.380001 53.312000 29.410999
92 1 4 0.053000 33.445000 52.348000 27.879999
93 1 4 0.053000 35.935001 52.206001 28.072001
94 1 4 0.053000 35.875999 53.155998 29.611000
95 1 4 0.053000 34.498001 50.437000 29.105000
96 1 4 0.053000 34.455002 51.373001 30.653000
97 1 4 0.053000 36.952000 51.195999 30.822001
98 1 4 0.053000 36.987999 50.277000 29.263000
99 1 4 0.053000 35.549000 48.497002 30.278999
100 1 4 0.053000 35.528999 49.405998 31.843000
101 1 4 0.053000 38.026001 49.214001 31.976999
102 1 4 0.053000 38.039001 48.313000 30.409000
103 1 4 0.053000 36.603001 46.525002 31.423000
104 1 4 0.053000 36.597000 47.425999 32.992001
105 1 4 0.053000 39.091999 47.236000 33.105999
106 1 4 0.053000 39.095001 46.326000 31.542999
107 1 4 0.053000 37.671001 44.542000 32.583000
108 1 4 0.053000 37.664001 45.464001 34.139999
109 1 4 0.053000 40.159000 45.293999 34.250000
110 1 4 0.053000 40.165001 44.352001 32.706001
111 1 4 0.053000 38.757999 42.578999 33.790001
112 1 4 0.053000 38.741001 43.536999 35.324001
113 1 4 0.053000 41.223000 43.408001 35.435001
114 1 4 0.053000 41.242001 42.429001 33.912998
115 1 4 0.053000 39.816002 40.682999 35.035999
116 1 4 0.053000 39.794998 41.661999 36.537998
117 1 4 0.053000 40.615002 39.792999 37.798000
118 1 4 0.053000 42.111000 38.930000 37.305000
119 1 4 0.053000 40.627998 38.797001 36.298000
120 1 4 0.053000 42.909000 41.067001 34.424000
121 1 4 0.053000 41.894001 39.580002 34.306999
122 1 4 0.053000 43.355000 39.618999 35.360001
123 1 4 0.053000 42.897999 42.415001 36.465000
124 1 4 0.053000 43.330002 40.997002 37.449001
125 1 4 0.053000 41.858002 41.948002 37.862999
126 1 5 -1.000000 43.487000 41.481998 36.048000
127 1 1 -0.106000 39.492001 29.334000 38.272999
128 1 1 -0.106000 39.618000 27.820000 38.083000
129 1 1 -0.106000 38.243999 27.146999 38.155998
130 1 1 -0.106000 38.375000 25.629999 37.992001
131 1 1 -0.106000 37.006001 24.954000 38.095001
132 1 1 -0.106000 37.138000 23.437000 37.939999
133 1 1 -0.106000 35.771000 22.761000 38.053001
134 1 1 -0.106000 35.896000 21.245001 37.883999
135 1 1 -0.106000 34.522999 20.577000 37.980999
136 1 1 -0.106000 34.633999 19.063000 37.779999
137 1 1 -0.106000 33.250000 18.406000 37.851002
138 1 1 0.301100 33.355999 16.882999 37.613998
139 1 2 -0.628400 32.058998 16.136999 37.646999
140 1 3 0.248100 31.129000 16.620001 36.598000
141 1 3 0.248100 31.407000 16.246000 38.974998
142 1 3 0.248100 32.351002 14.707000 37.387001
143 1 1 -0.106000 40.868999 30.004999 38.234001
144 1 1 -0.106000 40.744999 31.516001 38.449001
145 1 1 -0.106000 42.123001 32.185001 38.429001
146 1 3 -0.159000 42.004002 33.689999 38.653999
147 1 4 0.053000 43.014999 34.148998 38.637001
148 1 4 0.053000 41.535000 33.895000 39.639000
149 1 4 0.053000 41.389000 34.151001 37.852001
150 1 4 0.053000 42.613998 32.004002 37.448002
151 1 4 0.053000 42.759998 31.753000 39.230999
152 1 4 0.053000 40.261002 31.705999 39.431999
153 1 4 0.053000 40.111000 31.951000 37.646000
154 1 4 0.053000 41.348000 29.806999 37.249001
155 1 4 0.053000 41.507999 29.573000 39.035999
156 1 4 0.053000 39.016998 29.539000 39.258999
157 1 4 0.053000 38.848999 29.756001 37.470001
158 1 4 0.053000 40.269001 27.405001 38.883999
159 1 4 0.053000 40.083000 27.607000 37.095001
160 1 4 0.053000 37.588001 27.552000 37.355000
161 1 4 0.053000 37.783001 27.368000 39.145000
162 1 4 0.053000 39.037998 25.231001 38.790001
163 1 4 0.053000 38.827000 25.403999 37.000999
164 1 4 0.053000 36.338001 25.350000 37.298000
165 1 4 0.053000 36.556000 25.184000 39.085999
166 1 4 0.053000 37.808998 23.042000 38.736000
167 1 4 0.053000 37.584000 23.207001 36.948002
168 1 4 0.053000 35.098999 23.162001 37.261002
169 1 4 0.053000 35.327000 22.986000 39.047001
170 1 4 0.053000 36.563999 20.836000 38.673000
171 1 4 0.053000 36.341000 21.025000 36.889000
172 1 4 0.053000 33.856998 21.000000 37.195999
173 1 4 0.053000 34.078999 20.787001 38.979000
174 1 4 0.053000 35.292999 18.629999 38.563999
175 1 4 0.053000 35.083000 18.861000 36.782001
176 1 4 0.053000 32.612999 18.872000 37.070999
177 1 4 0.053000 32.818001 18.617001 38.851002
178 1 4 0.053000 34.044998 16.468000 38.387001
179 1 4 0.053000 33.845001 16.730000 36.624001
180 1 4 0.053000 32.831001 14.570000 36.391998
181 1 4 0.053000 31.421000 14.096000 37.398998
182 1 4 0.053000 33.037998 14.290000 38.159000
183 1 4 0.053000 31.084000 17.285999 39.191002
184 1 4 0.053000 32.092999 15.915000 39.785999
185 1 4 0.053000 30.490999 15.616000 39.021000
186 1 4 0.053000 30.794001 17.660000 36.791000
187 1 4 0.053000 30.208000 15.997000 36.563000
188 1 4 0.053000 31.607000 16.584000 35.594002
189 1 5 -1.000000 30.268999 17.028999 37.637001
190 1 1 -0.106000 53.473000 41.312000 35.845001
191 1 1 -0.106000 53.424000 41.132999 34.326000
192 1 1 -0.106000 52.222000 40.277000 33.917999
193 1 1 -0.106000 52.189999 40.076000 32.400002
194 1 1 -0.106000 51.006001 39.195999 31.993999
195 1 1 -0.106000 50.980000 38.987999 30.478001
196 1 1 -0.106000 49.800999 38.101002 30.073999
197 1 1 -0.106000 49.763000 37.902000 28.558001
198 1 1 -0.106000 48.570999 37.027000 28.159000
199 1 1 -0.106000 48.505001 36.849998 26.639000
200 1 1 -0.106000 47.293999 35.995998 26.247999
201 1 1 0.301100 47.205002 35.844002 24.712999
202 1 2 -0.628400 46.048000 35.039001 24.214001
203 1 3 0.248100 44.754002 35.645000 24.610001
204 1 3 0.248100 46.110001 33.640999 24.705000
205 1 3 0.248100 46.116001 35.014999 22.733000
206 1 1 -0.106000 54.694000 42.139999 36.257999
207 1 1 -0.106000 54.756001 42.299000 37.779999
208 1 1 -0.106000 55.987999 43.110001 38.195000
209 1 3 -0.159000 56.057999 43.261002 39.712002
210 1 4 0.053000 56.959000 43.848999 39.985001
211 1 4 0.053000 56.123001 42.263000 40.195000
212 1 4 0.053000 55.158001 43.792000 40.088001
213 1 4 0.053000 55.944000 44.120998 37.733002
214 1 4 0.053000 56.909000 42.597000 37.842999
215 1 4 0.053000 54.806000 41.292000 38.250000
216 1 4 0.053000 53.835999 42.814999 38.133999
217 1 4 0.053000 54.638000 43.144001 35.780998
218 1 4 0.053000 55.618000 41.627998 35.905998
219 1 4 0.053000 53.533001 40.312000 36.328999
220 1 4 0.053000 52.544998 41.820999 36.188000
221 1 4 0.053000 54.358002 40.631001 33.987999
222 1 4 0.053000 53.354000 42.129002 33.835999
223 1 4 0.053000 51.283001 40.773998 34.247002
224 1 4 0.053000 52.296001 39.284000 34.415001
225 1 4 0.053000 53.133999 39.587002 32.075001
226 1 4 0.053000 52.106998 41.066002 31.899000
227 1 4 0.053000 50.056999 39.681999 32.317001
228 1 4 0.053000 51.091999 38.209000 32.499001
229 1 4 0.053000 51.930000 38.506001 30.155001
230 1 4 0.053000 50.889000 39.974998 29.974001
231 1 4 0.053000 48.853001 38.581001 30.403999
232 1 4 0.053000 49.894001 37.111000 30.573999
233 1 4 0.053000 50.706001 37.418999 28.221001
234 1 4 0.053000 49.671001 38.894001 28.062000
235 1 4 0.053000 47.632999 37.511002 28.510000
236 1 4 0.053000 48.666000 36.030998 28.645000
237 1 4 0.053000 49.438000 36.362000 26.280001
238 1 4 0.053000 48.417000 37.851002 26.160000
239 1 4 0.053000 46.383999 36.499001 26.636000
240 1 4 0.053000 47.398998 35.004002 26.733000
241 1 4 0.053000 48.159000 35.383999 24.363001
242 1 4 0.053000 47.158001 36.868999 24.277000
243 1 4 0.053000 46.057999 36.043999 22.312000
244 1 4 0.053000 45.277000 34.425999 22.299000
245 1 4 0.053000 47.067001 34.554001 22.381001
246 1 4 0.053000 45.976002 33.584999 25.806999
247 1 4 0.053000 47.084000 33.168999 24.445999
248 1 4 0.053000 45.299000 33.023998 24.257999
249 1 4 0.053000 44.598000 35.603001 25.708000
250 1 4 0.053000 43.900002 35.097000 24.153000
251 1 4 0.053000 44.695000 36.707001 24.285000
252 1 5 -1.000000 44.511002 34.479000 25.364000
253 1 1 -0.106000 55.359001 22.357000 46.976002
254 1 1 -0.106000 55.792999 21.535000 45.759998
255 1 1 -0.106000 55.342999 22.209000 44.460999
256 1 1 -0.106000 55.754002 21.372000 43.245998
257 1 1 -0.106000 55.279999 22.028999 41.948002
258 1 1 -0.106000 55.682999 21.188000 40.735001
259 1 1 -0.106000 55.200001 21.840000 39.438999
260 1 1 -0.106000 55.612999 21.010000 38.223000
261 1 1 -0.106000 55.141998 21.677000 36.929001
262 1 1 -0.106000 55.580002 20.870001 35.703999
263 1 1 -0.106000 55.125999 21.559999 34.411999
264 1 1 0.301100 55.597000 20.766001 33.174000
265 1 2 -0.628400 55.222000 21.357000 31.851999
266 1 3 0.248100 55.805000 22.709999 31.677999
267 1 3 0.248100 53.750000 21.427999 31.688999
268 1 3 0.248100 55.765999 20.478001 30.790001
269 1 1 -0.106000 55.778999 21.667000 48.278999
270 1 1 -0.106000 55.324001 22.476999 49.495998
271 1 1 -0.106000 55.724998 21.778999 50.798000
272 1 3 -0.159000 55.264000 22.577999 52.014000
273 1 4 0.053000 55.563999 22.049999 52.942001
274 1 4 0.053000 54.158001 22.684999 52.006001
275 1 4 0.053000 55.729000 23.587000 52.009998
276 1 4 0.053000 56.831001 21.667000 50.839001
277 1 4 0.053000 55.264000 20.768000 50.839001
278 1 4 0.053000 54.216999 22.589001 49.466999
279 1 4 0.053000 55.786999 23.488001 49.459000
280 1 4 0.053000 56.886002 21.556999 48.298000
281 1 4 0.053000 55.318001 20.655001 48.320000
282 1 4 0.053000 54.251999 22.468000 46.965000
283 1 4 0.053000 55.820999 23.367001 46.924999
284 1 4 0.053000 55.334000 20.523001 45.821999
285 1 4 0.053000 56.900002 21.427999 45.758999
286 1 4 0.053000 55.801998 23.219000 44.387001
287 1 4 0.053000 54.236000 22.316999 44.470001
288 1 4 0.053000 55.300999 20.360001 43.327999
289 1 4 0.053000 56.862999 21.268999 43.227001
290 1 4 0.053000 55.731998 23.042999 41.862000
291 1 4 0.053000 54.173000 22.132000 41.972000
292 1 4 0.053000 55.234001 20.173000 40.824001
293 1 4 0.053000 56.790001 21.087999 40.709000
294 1 4 0.053000 55.644001 22.857000 39.355000
295 1 4 0.053000 54.091999 21.934999 39.463001
296 1 4 0.053000 55.171001 19.992001 38.298000
297 1 4 0.053000 56.722000 20.917000 38.203999
298 1 4 0.053000 55.578999 22.698000 36.867001
299 1 4 0.053000 54.032001 21.761999 36.939999
300 1 4 0.053000 55.141998 19.849001 35.754002
301 1 4 0.053000 56.688999 20.785000 35.702000
302 1 4 0.053000 55.563000 22.580999 34.401001
303 1 4 0.053000 54.020000 21.636000 34.431000
304 1 4 0.053000 55.179001 19.735001 33.254002
305 1 4 0.053000 56.706001 20.674000 33.236000
306 1 4 0.053000 56.875000 20.402000 30.858999
307 1 4 0.053000 55.519001 20.865999 29.775999
308 1 4 0.053000 55.348000 19.448000 30.867001
309 1 4 0.053000 53.291000 22.143999 32.403999
310 1 4 0.053000 53.283001 20.430000 31.841999
311 1 4 0.053000 53.478001 21.783001 30.670000
312 1 4 0.053000 55.362999 23.443001 32.383999
313 1 4 0.053000 55.605000 23.101999 30.655001
314 1 4 0.053000 56.907001 22.693001 31.830000
315 1 5 -1.000000 54.485001 23.204000 31.634001
316 1 1 -0.106000 24.715000 42.263000 32.299999
317 1 1 -0.106000 24.479000 43.001999 33.619999
318 1 1 -0.106000 24.490000 42.026001 34.799000
319 1 1 -0.106000 24.226999 42.763000 36.115002
320 1 1 -0.106000 24.209000 41.784000 37.291000
321 1 1 -0.106000 23.937000 42.520000 38.605000
322 1 1 -0.106000 23.909000 41.539001 39.778999
323 1 1 -0.106000 23.652000 42.272999 41.097000
324 1 1 -0.106000 23.643000 41.287998 42.269001
325 1 1 -0.106000 23.419001 42.016998 43.596001
326 1 1 -0.106000 23.438000 41.026001 44.765999
327 1 1 0.301100 23.247999 41.764000 46.110001
328 1 2 -0.628400 23.264000 40.894001 47.327000
329 1 3 0.248100 24.556999 40.181000 47.466000
330 1 3 0.248100 22.156000 39.909000 47.301998
331 1 3 0.248100 23.084999 41.766998 48.511002
332 1 1 -0.106000 24.671000 43.234001 31.115999
333 1 1 -0.106000 24.882000 42.491001 29.794001
334 1 1 -0.106000 24.818001 43.458000 28.607000
335 1 3 -0.159000 25.018000 42.719002 27.287001
336 1 4 0.053000 24.965000 43.441002 26.445000
337 1 4 0.053000 24.225000 41.952999 27.150999
338 1 4 0.053000 26.011999 42.223000 27.270000
339 1 4 0.053000 25.610001 44.231998 28.711000
340 1 4 0.053000 23.827999 43.962002 28.587999
341 1 4 0.053000 24.091000 41.717999 29.677999
342 1 4 0.053000 25.875000 41.988998 29.809000
343 1 4 0.053000 25.464001 44.005001 31.240999
344 1 4 0.053000 23.679001 43.740002 31.096001
345 1 4 0.053000 23.923000 41.493000 32.167999
346 1 4 0.053000 25.705000 41.757999 32.330002
347 1 4 0.053000 23.490999 43.513000 33.580002
348 1 4 0.053000 25.273001 43.768002 33.764000
349 1 4 0.053000 25.476999 41.514999 34.849998
350 1 4 0.053000 23.697001 41.259998 34.646000
351 1 4 0.053000 23.245001 43.278999 36.056999
352 1 4 0.053000 25.024000 43.522999 36.277000
353 1 4 0.053000 25.191999 41.264999 37.355000
354 1 4 0.053000 23.414000 41.023998 37.124001
355 1 4 0.053000 22.955999 43.042000 38.540001
356 1 4 0.053000 24.735001 43.276001 38.773998
357 1 4 0.053000 24.889000 41.013000 39.838001
358 1 4 0.053000 23.108000 40.785999 39.612999
359 1 4 0.053000 22.674000 42.798000 41.046001
360 1 4 0.053000 24.455999 43.026001 41.257000
361 1 4 0.053000 24.620001 40.757999 42.304001
362 1 4 0.053000 22.834000 40.540001 42.115002
363 1 4 0.053000 22.441000 42.546001 43.570999
364 1 4 0.053000 24.228001 42.768002 43.738998
365 1 4 0.053000 24.417000 40.502998 44.751999
366 1 4 0.053000 22.625999 40.287998 44.606998
367 1 4 0.053000 22.280001 42.316002 46.057999
368 1 4 0.053000 24.055000 42.528000 46.191002
369 1 4 0.053000 23.903000 42.519001 48.584000
370 1 4 0.053000 23.087999 41.175999 49.455002
371 1 4 0.053000 22.118000 42.318001 48.463001
372 1 4 0.053000 22.282000 39.167999 46.484001
373 1 4 0.053000 21.174000 40.416000 47.171001
374 1 4 0.053000 22.118999 39.327000 48.250000
375 1 4 0.053000 24.707001 39.436001 46.657001
376 1 4 0.053000 24.599001 39.615002 48.424000
377 1 4 0.053000 25.410000 40.895000 47.451000
378 1 5 -1.000000 23.837999 38.979000 47.311001
379 1 1 -0.106000 7.889000 49.464001 22.073999
380 1 1 -0.106000 8.818000 50.632999 22.409000
381 1 1 -0.106000 9.620000 50.342999 23.680000
382 1 1 -0.106000 10.529000 51.525002 24.028999
383 1 1 -0.106000 11.310000 51.249001 25.316000
384 1 1 -0.106000 12.211000 52.433998 25.669001
385 1 1 -0.106000 12.983000 52.160999 26.959999
386 1 1 -0.106000 13.897000 53.338001 27.309000
387 1 1 -0.106000 14.679000 53.049999 28.593000
388 1 1 -0.106000 15.621000 54.209000 28.933001
389 1 1 -0.106000 16.420000 53.900002 30.204000
390 1 1 0.301100 17.396000 55.053001 30.530001
391 1 2 -0.628400 18.240999 54.853001 31.747000
392 1 3 0.248100 19.101999 53.652000 31.618999
393 1 3 0.248100 17.409000 54.736000 32.970001
394 1 3 0.248100 19.118000 56.039001 31.892000
395 1 1 -0.106000 7.061000 49.765999 20.820999
396 1 1 -0.106000 6.115000 48.605999 20.500000
397 1 1 -0.106000 5.272000 48.916000 19.257999
398 1 3 -0.159000 4.320000 47.765999 18.941999
399 1 4 0.053000 3.721000 48.016998 18.042000
400 1 4 0.053000 3.629000 47.594002 19.794001
401 1 4 0.053000 4.893000 46.835999 18.742001
402 1 4 0.053000 5.939000 49.083000 18.385000
403 1 4 0.053000 4.675000 49.837002 19.431999
404 1 4 0.053000 5.439000 48.435001 21.367001
405 1 4 0.053000 6.710000 47.683998 20.322001
406 1 4 0.053000 7.745000 49.938000 19.959000
407 1 4 0.053000 6.463000 50.688999 20.993000
408 1 4 0.053000 7.201000 49.287998 22.930000
409 1 4 0.053000 8.495000 48.546001 21.907000
410 1 4 0.053000 8.207000 51.549999 22.566000
411 1 4 0.053000 9.517000 50.807999 21.561001
412 1 4 0.053000 10.239000 49.431000 23.530001
413 1 4 0.053000 8.916000 50.165001 24.523001
414 1 4 0.053000 9.908000 52.437000 24.169001
415 1 4 0.053000 11.242000 51.701000 23.193001
416 1 4 0.053000 11.934000 50.337002 25.180000
417 1 4 0.053000 10.594000 51.070999 26.148001
418 1 4 0.053000 11.586000 53.346001 25.801001
419 1 4 0.053000 12.930000 52.609001 24.837999
420 1 4 0.053000 13.602000 51.244999 26.829000
421 1 4 0.053000 12.265000 51.991001 27.792999
422 1 4 0.053000 13.286000 54.257000 27.445999
423 1 4 0.053000 14.612000 53.504002 26.474001
424 1 4 0.053000 15.278000 52.124001 28.452999
425 1 4 0.053000 13.966000 52.893002 29.433001
426 1 4 0.053000 15.030000 55.139000 29.080000
427 1 4 0.053000 16.327000 54.363998 28.086000
428 1 4 0.053000 16.982000 52.959000 30.032000
429 1 4 0.053000 15.701000 53.750000 31.035999
430 1 4 0.053000 16.792999 55.985001 30.642000
431 1 4 0.053000 18.054001 55.195000 29.642000
432 1 4 0.053000 19.775000 56.164001 31.002001
433 1 4 0.053000 19.775000 55.951000 32.785999
434 1 4 0.053000 18.518000 56.971001 32.006001
435 1 4 0.053000 16.791000 53.813999 32.960999
436 1 4 0.053000 16.732000 55.612999 33.077000
437 1 4 0.053000 18.046000 54.679001 33.881001
438 1 4 0.053000 18.506001 52.716000 31.605000
439 1 4 0.053000 19.798000 53.564999 32.483002
440 1 4 0.053000 19.712000 53.695999 30.688999
441 1 5 -1.000000 18.398001 53.108002 32.712002
442 1 1 -0.106000 35.346001 15.040000 19.652000
443 1 1 -0.106000 34.105000 15.323000 18.802999
444 1 1 -0.106000 32.955002 15.835000 19.674000
445 1 1 -0.106000 31.705000 16.091999 18.827000
446 1 1 -0.106000 30.546000 16.575001 19.701000
447 1 1 -0.106000 29.296000 16.823999 18.855000
448 1 1 -0.106000 28.135000 17.297001 19.732000
449 1 1 -0.106000 26.886000 17.561001 18.888000
450 1 1 -0.106000 25.733999 18.051001 19.768000
451 1 1 -0.106000 24.489000 18.349001 18.927999
452 1 1 -0.106000 23.350000 18.864000 19.813999
453 1 1 0.301100 22.104000 19.198999 18.964001
454 1 2 -0.628400 20.930000 19.726999 19.726000
455 1 3 0.248100 21.261999 20.990999 20.424999
456 1 3 0.248100 20.433001 18.733999 20.709000
457 1 3 0.248100 19.846001 20.004000 18.754000
458 1 1 -0.106000 36.487000 14.496000 18.787001
459 1 1 -0.106000 37.721001 14.190000 19.641001
460 1 1 -0.106000 38.855999 13.627000 18.780001
461 1 3 -0.159000 40.083000 13.311000 19.629000
462 1 4 0.053000 40.888000 12.903000 18.983000
463 1 4 0.053000 39.831001 12.556000 20.403000
464 1 4 0.053000 40.456001 14.232000 20.125000
465 1 4 0.053000 39.138000 14.368000 18.000000
466 1 4 0.053000 38.516998 12.694000 18.278000
467 1 4 0.053000 37.449001 13.444000 20.420000
468 1 4 0.053000 38.063000 15.123000 20.141001
469 1 4 0.053000 36.750000 15.247000 18.009001
470 1 4 0.053000 36.150002 13.562000 18.284000
471 1 4 0.053000 35.091000 14.287000 20.431000
472 1 4 0.053000 35.674000 15.977000 20.153999
473 1 4 0.053000 33.786999 14.384000 18.297001
474 1 4 0.053000 34.349998 16.083000 18.028000
475 1 4 0.053000 33.261002 16.777000 20.180000
476 1 4 0.053000 32.717999 15.072000 20.450001
477 1 4 0.053000 31.408001 15.150000 18.316999
478 1 4 0.053000 31.934999 16.861000 18.056000
479 1 4 0.053000 30.839001 17.520000 20.214001
480 1 4 0.053000 30.322001 15.806000 20.472000
481 1 4 0.053000 29.004999 15.880000 18.340000
482 1 4 0.053000 29.518999 17.597000 18.087999
483 1 4 0.053000 28.429001 18.237000 20.250999
484 1 4 0.053000 27.907000 16.521999 20.496000
485 1 4 0.053000 26.583000 16.625999 18.367001
486 1 4 0.053000 27.118999 18.336000 18.124001
487 1 4 0.053000 26.049000 18.979000 20.294001
488 1 4 0.053000 25.492001 17.273001 20.525999
489 1 4 0.053000 24.164000 17.424000 18.402000
490 1 4 0.053000 24.740000 19.122000 18.167999
491 1 4 0.053000 23.712000 19.774000 20.337000
492 1 4 0.053000 23.113001 18.080999 20.563000
493 1 4 0.053000 21.809000 18.271999 18.417999
494 1 4 0.053000 22.413000 19.945999 18.195999
495 1 4 0.053000 20.165001 20.757000 18.000000
496 1 4 0.053000 18.938000 20.400999 19.263000
497 1 4 0.053000 19.548000 19.079000 18.209000
498 1 4 0.053000 21.172001 18.548000 21.517000
499 1 4 0.053000 20.202000 17.764000 20.215000
500 1 4 0.053000 19.506001 19.096001 21.207001
501 1 4 0.053000 22.002001 20.832001 21.237000
502 1 4 0.053000 20.360001 21.430000 20.907000
503 1 4 0.053000 21.673000 21.743999 19.716000
504 1 5 -1.000000 21.021999 20.311001 21.636000
505 1 1 -0.106000 7.372000 49.250999 44.778999
506 1 1 -0.106000 8.758000 48.618999 44.924000
507 1 1 -0.106000 9.165000 48.530998 46.396999
508 1 1 -0.106000 10.563000 47.924000 46.539001
509 1 1 -0.106000 10.983000 47.862999 48.008999
510 1 1 -0.106000 12.383000 47.264000 48.150002
511 1 1 -0.106000 12.805000 47.213001 49.618999
512 1 1 -0.106000 14.200000 46.601002 49.764999
513 1 1 -0.106000 14.609000 46.536999 51.237999
514 1 1 -0.106000 15.990000 45.895000 51.397999
515 1 1 -0.106000 16.379000 45.811001 52.877998
516 1 1 0.301100 17.757000 45.132000 53.042999
517 1 2 -0.628400 18.233000 44.981998 54.452999
518 1 3 0.248100 17.302999 44.151001 55.254002
519 1 3 0.248100 18.407000 46.300999 55.108002
520 1 3 0.248100 19.549999 44.303001 54.417999
521 1 1 -0.106000 6.978000 49.369999 43.303001
522 1 1 -0.106000 5.602000 50.025002 43.157001
523 1 1 -0.106000 5.216000 50.161999 41.681000
524 1 3 -0.159000 3.849000 50.824001 41.532001
525 1 4 0.053000 3.595000 50.914001 40.455002
526 1 4 0.053000 3.863000 51.840000 41.980999
527 1 4 0.053000 3.069000 50.213001 42.033001
528 1 4 0.053000 5.184000 49.157001 41.207001
529 1 4 0.053000 5.973000 50.782001 41.153000
530 1 4 0.053000 5.626000 51.034000 43.624001
531 1 4 0.053000 4.842000 49.404999 43.682999
532 1 4 0.053000 6.959000 48.355999 42.842999
533 1 4 0.053000 7.736000 49.988998 42.771999
534 1 4 0.053000 7.386000 50.266998 45.234001
535 1 4 0.053000 6.623000 48.627998 45.314999
536 1 4 0.053000 9.502000 49.242001 44.377998
537 1 4 0.053000 8.751000 47.598999 44.480000
538 1 4 0.053000 8.430000 47.904999 46.950001
539 1 4 0.053000 9.167000 49.554001 46.835999
540 1 4 0.053000 11.293000 48.547001 45.978001
541 1 4 0.053000 10.564000 46.896000 46.110001
542 1 4 0.053000 10.255000 47.237999 48.575001
543 1 4 0.053000 10.978000 48.889999 48.435001
544 1 4 0.053000 13.110000 47.887001 47.581001
545 1 4 0.053000 12.387000 46.234001 47.728001
546 1 4 0.053000 12.074000 46.595001 50.187000
547 1 4 0.053000 12.808000 48.242001 50.040001
548 1 4 0.053000 14.938000 47.214001 49.202000
549 1 4 0.053000 14.193000 45.570999 49.341999
550 1 4 0.053000 13.861000 45.931999 51.796001
551 1 4 0.053000 14.627000 47.566002 51.661999
552 1 4 0.053000 16.747000 46.495998 50.847000
553 1 4 0.053000 15.966000 44.868999 50.966999
554 1 4 0.053000 15.597000 45.222000 53.401001
555 1 4 0.053000 16.399000 46.841000 53.289001
556 1 4 0.053000 18.499001 45.727001 52.459999
557 1 4 0.053000 17.695999 44.126999 52.564999
558 1 4 0.053000 19.472000 43.298000 53.946999
559 1 4 0.053000 19.961000 44.161999 55.444000
560 1 4 0.053000 20.294001 44.896000 53.837002
561 1 4 0.053000 17.436001 46.824001 55.243999
562 1 4 0.053000 19.080000 46.958000 54.513000
563 1 4 0.053000 18.847000 46.187000 56.124001
564 1 4 0.053000 16.323999 44.652000 55.401001
565 1 4 0.053000 17.712000 43.960999 56.271999
566 1 4 0.053000 17.125999 43.166000 54.765999
567 1 5 -1.000000 17.072001 45.289001 56.051998
568 1 1 -0.106000 49.633999 55.816002 28.955000
569 1 1 -0.106000 48.918999 55.650002 30.298000
570 1 1 -0.106000 49.925999 55.633999 31.451000
571 1 1 -0.106000 49.210999 55.439999 32.792000
572 1 1 -0.106000 50.219002 55.395000 33.942001
573 1 1 -0.106000 49.505001 55.193001 35.280998
574 1 1 -0.106000 50.514000 55.137001 36.429001
575 1 1 -0.106000 49.803001 54.950001 37.771000
576 1 1 -0.106000 50.817001 54.911999 38.917000
577 1 1 -0.106000 50.112999 54.757999 40.268002
578 1 1 -0.106000 51.133999 54.749001 41.410999
579 1 1 0.301100 50.424000 54.629002 42.778000
580 1 2 -0.628400 51.325001 54.624001 43.971001
581 1 3 0.248100 52.111000 55.879002 44.062000
582 1 3 0.248100 52.248001 53.463001 43.948002
583 1 3 0.248100 50.476002 54.519001 45.181999
584 1 1 -0.106000 48.631001 55.798000 27.797001
585 1 1 -0.106000 49.348000 55.939999 26.452000
586 1 1 -0.106000 48.348000 55.903000 25.292000
587 1 3 -0.159000 49.061001 56.033001 23.948999
588 1 4 0.053000 48.314999 56.000000 23.128000
589 1 4 0.053000 49.778999 55.195999 23.812000
590 1 4 0.053000 49.609001 56.998001 23.896000
591 1 4 0.053000 47.620998 56.737000 25.396999
592 1 4 0.053000 47.791000 54.941002 25.309999
593 1 4 0.053000 50.074001 55.105000 26.334999
594 1 4 0.053000 49.903999 56.903000 26.431000
595 1 4 0.053000 47.907001 56.634998 27.923000
596 1 4 0.053000 48.070999 54.835999 27.813000
597 1 4 0.053000 50.355999 54.980000 28.820999
598 1 4 0.053000 50.192001 56.778000 28.948000
599 1 4 0.053000 48.355000 54.691002 30.295000
600 1 4 0.053000 48.201000 56.487000 30.443001
601 1 4 0.053000 50.490002 56.591999 31.466000
602 1 4 0.053000 50.643002 54.796001 31.297001
603 1 4 0.053000 48.640999 54.486000 32.769001
604 1 4 0.053000 48.500000 56.280998 32.953999
605 1 4 0.053000 50.792000 56.348999 33.969002
606 1 4 0.053000 50.930000 54.556000 33.775002
607 1 4 0.053000 48.929001 54.240002 35.251999
608 1 4 0.053000 48.798000 56.034000 35.450001
609 1 4 0.053000 51.092999 56.087002 36.452000
610 1 4 0.053000 51.217999 54.292000 36.263000
611 1 4 0.053000 49.223999 54.000000 37.757000
612 1 4 0.053000 49.099998 55.796001 37.931999
613 1 4 0.053000 51.400002 55.859001 38.916000
614 1 4 0.053000 51.515999 54.060001 38.764000
615 1 4 0.053000 49.532001 53.810001 40.279999
616 1 4 0.053000 49.410999 55.610001 40.410999
617 1 4 0.053000 51.709000 55.696999 41.360001
618 1 4 0.053000 51.823002 53.894001 41.251999
619 1 4 0.053000 49.819000 53.691002 42.763000
620 1 4 0.053000 49.707001 55.478001 42.859001
621 1 4 0.053000 49.771999 55.377998 45.254002
622 1 4 0.053000 51.091999 54.511002 46.109001
623 1 4 0.053000 49.873001 53.583000 45.169998
624 1 4 0.053000 52.972000 53.529999 43.108002
625 1 4 0.053000 51.686001 52.507999 43.852001
626 1 4 0.053000 52.852001 53.416000 44.881001
627 1 4 0.053000 52.841000 55.969002 43.230999
628 1 4 0.053000 52.703999 55.910999 45.002998
629 1 4 0.053000 51.444000 56.769001 44.044998