LAMMPS data file containing the original structures and the polarizable gold

19005 atoms
15455 bonds
24210 angles
34515 dihedrals
0 impropers

7 atom types
7 bond types
13 angle types
15 dihedral types

-48.630451 106.548553 xlo xhi
-3.000000 64.974602 ylo yhi
-3.000000 88.475677 zlo zhi

Masses

1 12.011150
2 14.006700
3 12.011150
4 1.007970
5 79.908997
6 195.960007
7 1.000000

Atoms

1 1 1 -0.106000 16.289000 8.821000 91.893997
2 1 1 -0.106000 14.973000 8.899000 92.670998
3 1 1 -0.106000 14.844000 10.246000 93.387001
4 1 1 -0.106000 13.540000 10.312000 94.186996
5 1 1 -0.106000 13.423000 11.646000 94.926003
6 1 1 -0.106000 12.124000 11.708000 95.732002
7 1 1 -0.106000 12.013000 13.039000 96.478996
8 1 1 -0.106000 10.708000 13.111000 97.275002
9 1 1 -0.106000 10.595000 14.451000 98.004997
10 1 1 -0.106000 9.277000 14.546000 98.778000
11 1 1 -0.106000 9.162000 15.902000 99.484001
12 1 1 0.301100 7.817000 16.013000 100.236000
13 1 2 -0.628400 7.588000 17.306000 100.953003
14 1 3 0.248100 7.594000 18.455000 100.014999
15 1 3 0.248100 8.605000 17.525999 102.010002
16 1 3 0.248100 6.255000 17.239000 101.597000
17 1 1 -0.106000 16.436001 7.460000 91.205002
18 1 1 -0.106000 17.763000 7.373000 90.445999
19 1 1 -0.106000 17.920000 6.006000 89.773003
20 1 3 -0.159000 19.247000 5.913000 89.026001
21 1 4 0.053000 19.336000 4.913000 88.550003
22 1 4 0.053000 20.094999 6.050000 89.728996
23 1 4 0.053000 19.299000 6.690000 88.234001
24 1 4 0.053000 17.087999 5.845000 89.053001
25 1 4 0.053000 17.885000 5.204000 90.542999
26 1 4 0.053000 18.601999 7.527000 91.161003
27 1 4 0.053000 17.799000 8.173000 89.674004
28 1 4 0.053000 15.591000 7.314000 90.494003
29 1 4 0.053000 16.400999 6.656000 91.973999
30 1 4 0.053000 17.138000 8.963000 92.598999
31 1 4 0.053000 16.316999 9.629000 91.130997
32 1 4 0.053000 14.948000 8.082000 93.427002
33 1 4 0.053000 14.119000 8.767000 91.972000
34 1 4 0.053000 14.863000 11.068000 92.639000
35 1 4 0.053000 15.704000 10.373000 94.083000
36 1 4 0.053000 13.521000 9.483000 94.928001
37 1 4 0.053000 12.676000 10.194000 93.494003
38 1 4 0.053000 13.440000 12.480000 94.188004
39 1 4 0.053000 14.289000 11.761000 95.614998
40 1 4 0.053000 12.105000 10.873000 96.468002
41 1 4 0.053000 11.258000 11.598000 95.042999
42 1 4 0.053000 12.039000 13.873000 95.742996
43 1 4 0.053000 12.875000 13.147000 97.172997
44 1 4 0.053000 10.676000 12.281000 98.014999
45 1 4 0.053000 9.849000 13.001000 96.575996
46 1 4 0.053000 10.641000 15.275000 97.260002
47 1 4 0.053000 11.448000 14.559000 98.711998
48 1 4 0.053000 9.226000 13.728000 99.529999
49 1 4 0.053000 8.430000 14.431000 98.066002
50 1 4 0.053000 9.235000 16.694000 98.710999
51 1 4 0.053000 10.013000 15.998000 100.189003
52 1 4 0.053000 7.765000 15.169000 100.962997
53 1 4 0.053000 7.002000 15.854000 99.491997
54 1 4 0.053000 5.451000 17.089001 100.841003
55 1 4 0.053000 6.024000 18.177000 102.150002
56 1 4 0.053000 6.201000 16.396999 102.324997
57 1 4 0.053000 9.619000 17.672001 101.581001
58 1 4 0.053000 8.642000 16.665001 102.713997
59 1 4 0.053000 8.377000 18.441999 102.598000
60 1 4 0.053000 8.598000 18.620001 99.570999
61 1 4 0.053000 7.325000 19.399000 100.538002
62 1 4 0.053000 6.864000 18.299999 99.189003
63 1 5 -1.000000 8.730000 18.929001 100.700996
64 1 1 -0.106000 53.665001 53.318001 97.084999
65 1 1 -0.106000 52.807999 52.081001 97.363998
66 1 1 -0.106000 52.539001 51.932999 98.863998
67 1 1 -0.106000 51.703999 50.681000 99.143997
68 1 1 -0.106000 51.459999 50.515999 100.646004
69 1 1 -0.106000 50.632999 49.258999 100.926003
70 1 1 -0.106000 50.397999 49.090000 102.428001
71 1 1 -0.106000 49.558998 47.841999 102.711998
72 1 1 -0.106000 49.313000 47.688000 104.214996
73 1 1 -0.106000 48.445999 46.459999 104.505997
74 1 1 -0.106000 48.181999 46.330002 106.011002
75 1 1 0.301100 47.278999 45.112000 106.304001
76 1 2 -0.628400 46.943001 44.895000 107.745003
77 1 3 0.248100 46.210999 46.054001 108.310997
78 1 3 0.248100 48.160000 44.637001 108.552002
79 1 3 0.248100 46.064999 43.702999 107.832001
80 1 1 -0.106000 53.963001 53.448002 95.587997
81 1 1 -0.106000 54.841000 54.672001 95.310997
82 1 1 -0.106000 55.155998 54.792000 93.817001
83 1 3 -0.159000 56.040001 56.005001 93.539001
84 1 4 0.053000 56.255001 56.067001 92.452003
85 1 4 0.053000 57.000999 55.914001 94.088997
86 1 4 0.053000 55.525002 56.937000 93.855003
87 1 4 0.053000 54.210999 54.896000 93.240997
88 1 4 0.053000 55.686001 53.877998 93.472000
89 1 4 0.053000 55.792999 54.575001 95.878998
90 1 4 0.053000 54.312000 55.589001 95.653000
91 1 4 0.053000 53.006001 53.542999 95.028000
92 1 4 0.053000 54.493000 52.533001 95.239998
93 1 4 0.053000 54.625999 53.228001 97.639999
94 1 4 0.053000 53.130001 54.227001 97.438004
95 1 4 0.053000 53.344002 51.175999 97.000999
96 1 4 0.053000 51.841000 52.167000 96.820000
97 1 4 0.053000 51.997002 52.831001 99.235001
98 1 4 0.053000 53.509998 51.851002 99.402000
99 1 4 0.053000 52.244999 49.786999 98.764000
100 1 4 0.053000 50.728001 50.762001 98.615997
101 1 4 0.053000 50.917000 51.409000 101.031998
102 1 4 0.053000 52.437000 50.437000 101.170998
103 1 4 0.053000 51.174000 48.367001 100.537003
104 1 4 0.053000 49.653999 49.340000 100.404999
105 1 4 0.053000 49.862999 49.985001 102.817001
106 1 4 0.053000 51.375999 49.002998 102.948997
107 1 4 0.053000 50.088001 46.942001 102.329002
108 1 4 0.053000 48.582001 47.932999 102.188004
109 1 4 0.053000 48.794998 48.597000 104.592003
110 1 4 0.053000 50.287998 47.587002 104.739998
111 1 4 0.053000 48.959999 45.544998 104.137001
112 1 4 0.053000 47.474998 46.566002 103.972000
113 1 4 0.053000 47.688000 47.264000 106.349998
114 1 4 0.053000 49.160000 46.226002 106.525002
115 1 4 0.053000 47.791000 44.207001 105.900002
116 1 4 0.053000 46.339001 45.243000 105.720001
117 1 4 0.053000 45.126999 43.852001 107.252998
118 1 4 0.053000 45.778000 43.487999 108.886002
119 1 4 0.053000 46.575001 42.798000 107.431000
120 1 4 0.053000 48.820000 45.528999 108.598000
121 1 4 0.053000 48.744999 43.787998 108.133003
122 1 4 0.053000 47.896000 44.387001 109.602997
123 1 4 0.053000 46.849998 46.959000 108.364998
124 1 4 0.053000 45.876999 45.845001 109.352997
125 1 4 0.053000 45.310001 46.292999 107.703003
126 1 5 -1.000000 47.304001 46.238998 109.181000
127 1 1 -0.106000 43.110001 52.937000 37.500999
128 1 1 -0.106000 42.744999 52.459000 38.908001
129 1 1 -0.106000 43.625999 51.278999 39.327000
130 1 1 -0.106000 43.240002 50.784000 40.723999
131 1 1 -0.106000 44.099998 49.585999 41.132000
132 1 1 -0.106000 43.709000 49.085999 42.523998
133 1 1 -0.106000 44.563000 47.882000 42.926998
134 1 1 -0.106000 44.185001 47.389000 44.325001
135 1 1 -0.106000 45.054001 46.195000 44.729000
136 1 1 -0.106000 44.706001 45.715000 46.139999
137 1 1 -0.106000 45.599998 44.536999 46.544998
138 1 1 0.301100 45.273998 44.073002 47.981998
139 1 2 -0.628400 46.098999 42.933998 48.491001
140 1 3 0.248100 47.541000 43.278999 48.522999
141 1 3 0.248100 45.901001 41.714001 47.671001
142 1 3 0.248100 45.660999 42.639000 49.875999
143 1 1 -0.106000 42.207001 54.096001 37.067001
144 1 1 -0.106000 42.556999 54.557999 35.650002
145 1 1 -0.106000 41.640999 55.703999 35.207001
146 1 3 -0.159000 41.980000 56.160000 33.790001
147 1 4 0.053000 41.301998 56.987000 33.493999
148 1 4 0.053000 41.852001 55.320000 33.075001
149 1 4 0.053000 43.028000 56.522999 33.743999
150 1 4 0.053000 41.756001 56.564999 35.900002
151 1 4 0.053000 40.582001 55.366001 35.230000
152 1 4 0.053000 42.438000 53.703999 34.946999
153 1 4 0.053000 43.615002 54.898998 35.624001
154 1 4 0.053000 42.328999 54.945000 37.776001
155 1 4 0.053000 41.146000 53.759998 37.090000
156 1 4 0.053000 42.986000 52.092999 36.785999
157 1 4 0.053000 44.172001 53.266998 37.486000
158 1 4 0.053000 41.679001 52.138000 38.918999
159 1 4 0.053000 42.875000 53.293999 39.631001
160 1 4 0.053000 44.693001 51.591000 39.325001
161 1 4 0.053000 43.493000 50.448002 38.598000
162 1 4 0.053000 42.171001 50.480000 40.723999
163 1 4 0.053000 43.380001 51.609001 41.459000
164 1 4 0.053000 45.173000 49.884998 41.133999
165 1 4 0.053000 43.959999 48.764999 40.394001
166 1 4 0.053000 42.636002 48.790001 42.522999
167 1 4 0.053000 43.854000 49.905998 43.263000
168 1 4 0.053000 45.636002 48.178001 42.922001
169 1 4 0.053000 44.414001 47.060001 42.193001
170 1 4 0.053000 43.113998 47.089001 44.338001
171 1 4 0.053000 44.334000 48.214001 45.056000
172 1 4 0.053000 46.123001 46.500000 44.701000
173 1 4 0.053000 44.898998 45.363998 44.005001
174 1 4 0.053000 43.639000 45.402000 46.174999
175 1 4 0.053000 44.856998 46.553001 46.856998
176 1 4 0.053000 46.654999 44.875000 46.481998
177 1 4 0.053000 45.436001 43.713001 45.820999
178 1 4 0.053000 44.194000 43.793999 48.011002
179 1 4 0.053000 45.402000 44.952000 48.655998
180 1 4 0.053000 45.803001 43.521999 50.539001
181 1 4 0.053000 46.241001 41.793999 50.313000
182 1 4 0.053000 44.583000 42.358002 49.907001
183 1 4 0.053000 46.292000 41.844002 46.639000
184 1 4 0.053000 44.821999 41.446999 47.606998
185 1 4 0.053000 46.445000 40.847000 48.106998
186 1 4 0.053000 47.953999 43.417000 47.501999
187 1 4 0.053000 48.136002 42.466000 48.993999
188 1 4 0.053000 47.714001 44.213001 49.103001
189 1 5 -1.000000 47.742001 42.258999 47.570999
190 1 1 -0.106000 33.293999 48.930000 19.004000
191 1 1 -0.106000 34.417000 48.487999 19.945000
192 1 1 -0.106000 35.583000 47.887001 19.155001
193 1 1 -0.106000 36.694000 47.419998 20.100000
194 1 1 -0.106000 37.847000 46.792999 19.313999
195 1 1 -0.106000 38.952999 46.319000 20.259001
196 1 1 -0.106000 40.101002 45.682999 19.473000
197 1 1 -0.106000 41.216000 45.221001 20.414000
198 1 1 -0.106000 42.368999 44.601002 19.620001
199 1 1 -0.106000 43.504002 44.165001 20.549000
200 1 1 -0.106000 44.664001 43.570999 19.743000
201 1 1 0.301100 45.826000 43.162998 20.676001
202 1 2 -0.628400 47.022999 42.582001 19.993999
203 1 3 0.248100 47.625000 43.544998 19.041000
204 1 3 0.248100 46.682999 41.327000 19.280001
205 1 3 0.248100 48.030998 42.266998 21.034000
206 1 1 -0.106000 32.112000 49.500000 19.794001
207 1 1 -0.106000 30.979000 49.919998 18.854000
208 1 1 -0.106000 29.789000 50.472000 19.645000
209 1 3 -0.159000 28.653000 50.882000 18.712000
210 1 4 0.053000 27.804001 51.275002 19.309000
211 1 4 0.053000 28.302000 50.006001 18.125999
212 1 4 0.053000 28.996000 51.674999 18.013000
213 1 4 0.053000 30.108999 51.359001 20.235001
214 1 4 0.053000 29.413000 49.695000 20.346001
215 1 4 0.053000 30.646999 49.036999 18.264999
216 1 4 0.053000 31.351000 50.700001 18.153999
217 1 4 0.053000 32.452999 50.381001 20.382999
218 1 4 0.053000 31.735001 48.723999 20.497000
219 1 4 0.053000 32.945999 48.053001 18.414000
220 1 4 0.053000 33.680000 49.702999 18.302999
221 1 4 0.053000 34.021999 47.721001 20.649000
222 1 4 0.053000 34.777000 49.362000 20.531000
223 1 4 0.053000 35.987999 48.647999 18.452999
224 1 4 0.053000 35.215000 47.015999 18.568001
225 1 4 0.053000 36.283001 46.666000 20.806000
226 1 4 0.053000 37.071999 48.290001 20.683001
227 1 4 0.053000 38.263000 47.544998 18.606001
228 1 4 0.053000 37.465000 45.925999 18.731001
229 1 4 0.053000 38.535999 45.570000 20.969000
230 1 4 0.053000 39.338001 47.187000 20.839001
231 1 4 0.053000 40.512001 46.431000 18.759001
232 1 4 0.053000 39.717999 44.812000 18.898001
233 1 4 0.053000 40.813000 44.470001 21.129000
234 1 4 0.053000 41.595001 46.095001 20.988001
235 1 4 0.053000 42.757000 45.354000 18.898001
236 1 4 0.053000 41.994999 43.720001 19.052000
237 1 4 0.053000 43.125000 43.408001 21.271000
238 1 4 0.053000 43.868000 45.049999 21.118000
239 1 4 0.053000 45.006001 44.341999 19.021999
240 1 4 0.053000 44.283001 42.692001 19.184999
241 1 4 0.053000 45.424000 42.429001 21.414000
242 1 4 0.053000 46.130001 44.069000 21.250000
243 1 4 0.053000 48.332001 43.181999 21.591999
244 1 4 0.053000 48.951000 41.827999 20.587000
245 1 4 0.053000 47.632999 41.533001 21.771999
246 1 4 0.053000 45.994999 41.512001 18.427999
247 1 4 0.053000 46.203999 40.594002 19.966000
248 1 4 0.053000 47.594002 40.853001 18.851000
249 1 4 0.053000 46.953999 43.748001 18.180000
250 1 4 0.053000 48.570000 43.145000 18.611000
251 1 4 0.053000 47.856998 44.511002 19.542999
252 1 5 -1.000000 47.303001 42.634998 18.014000
253 1 1 -0.106000 17.308001 23.579000 34.101002
254 1 1 -0.106000 17.023001 23.798000 35.589001
255 1 1 -0.106000 18.320999 23.770000 36.401001
256 1 1 -0.106000 18.031000 23.962000 37.891998
257 1 1 -0.106000 19.325001 23.906000 38.708000
258 1 1 -0.106000 19.034000 24.087999 40.199001
259 1 1 -0.106000 20.327000 24.021999 41.014000
260 1 1 -0.106000 20.042000 24.219000 42.505001
261 1 1 -0.106000 21.341000 24.167999 43.313000
262 1 1 -0.106000 21.070000 24.398001 44.801998
263 1 1 -0.106000 22.379000 24.372000 45.598999
264 1 1 0.301100 22.112000 24.638000 47.097000
265 1 2 -0.628400 23.325001 24.650999 47.973000
266 1 3 0.248100 24.278000 25.711000 47.563999
267 1 3 0.248100 24.014000 23.337000 47.962002
268 1 3 0.248100 22.882999 24.933001 49.359001
269 1 1 -0.106000 16.007999 23.572001 33.291000
270 1 1 -0.106000 16.291000 23.329000 31.806999
271 1 1 -0.106000 14.989000 23.302999 30.999001
272 1 3 -0.159000 15.267000 23.049999 29.520000
273 1 4 0.053000 14.309000 23.033001 28.959000
274 1 4 0.053000 15.776000 22.072001 29.386000
275 1 4 0.053000 15.909000 23.856001 29.106001
276 1 4 0.053000 14.462000 24.275999 31.106001
277 1 4 0.053000 14.328000 22.495001 31.382000
278 1 4 0.053000 16.813000 22.354000 31.688999
279 1 4 0.053000 16.950001 24.138000 31.420000
280 1 4 0.053000 15.490000 24.549999 33.417000
281 1 4 0.053000 15.344000 22.764999 33.674000
282 1 4 0.053000 17.823000 22.601000 33.969002
283 1 4 0.053000 17.974001 24.388000 33.728001
284 1 4 0.053000 16.350000 22.990000 35.953999
285 1 4 0.053000 16.517000 24.778000 35.730999
286 1 4 0.053000 18.999001 24.577999 36.047001
287 1 4 0.053000 18.823999 22.789000 36.250999
288 1 4 0.053000 17.347000 23.158001 38.238998
289 1 4 0.053000 17.537001 24.947001 38.048000
290 1 4 0.053000 20.014000 24.709999 38.363998
291 1 4 0.053000 19.816999 22.921000 38.548000
292 1 4 0.053000 18.343000 23.285999 40.541000
293 1 4 0.053000 18.546000 25.075001 40.360001
294 1 4 0.053000 21.018999 24.820000 40.666000
295 1 4 0.053000 20.812000 23.033001 40.859001
296 1 4 0.053000 19.351999 23.423000 42.861000
297 1 4 0.053000 19.555000 25.208000 42.654999
298 1 4 0.053000 22.028999 24.959000 42.942001
299 1 4 0.053000 21.825001 23.176001 43.172001
300 1 4 0.053000 20.386000 23.607000 45.182999
301 1 4 0.053000 20.580999 25.388000 44.933998
302 1 4 0.053000 23.045000 25.157000 45.183998
303 1 4 0.053000 22.851999 23.379000 45.456001
304 1 4 0.053000 21.400000 23.858000 47.457001
305 1 4 0.053000 21.589001 25.618999 47.175999
306 1 4 0.053000 22.370001 25.920000 49.424000
307 1 4 0.053000 23.745001 24.955999 50.063000
308 1 4 0.053000 22.173000 24.155001 49.721001
309 1 4 0.053000 24.447001 23.107000 46.966000
310 1 4 0.053000 23.313999 22.517000 48.238998
311 1 4 0.053000 24.861000 23.325001 48.683998
312 1 4 0.053000 24.723000 25.504000 46.568001
313 1 4 0.053000 25.129000 25.780001 48.278000
314 1 4 0.053000 23.778000 26.705000 47.528000
315 1 5 -1.000000 25.198000 24.684000 47.270000
316 1 1 -0.106000 23.155001 15.928000 108.293999
317 1 1 -0.106000 23.190001 17.216999 107.470001
318 1 1 -0.106000 23.884001 18.340000 108.247002
319 1 1 -0.106000 23.893000 19.636999 107.431999
320 1 1 -0.106000 24.559999 20.767000 108.219002
321 1 1 -0.106000 24.562000 22.065001 107.407997
322 1 1 -0.106000 25.219999 23.195999 108.199997
323 1 1 -0.106000 25.236000 24.492001 107.387001
324 1 1 -0.106000 25.912001 25.615999 108.177002
325 1 1 -0.106000 25.962999 26.909000 107.359001
326 1 1 -0.106000 26.664000 28.020000 108.148003
327 1 1 0.301100 26.747999 29.316000 107.311996
328 1 2 -0.628400 27.430000 30.468000 107.978996
329 1 3 0.248100 28.837000 30.143999 108.317001
330 1 3 0.248100 26.709000 30.884001 109.207001
331 1 3 0.248100 27.430000 31.607000 107.030998
332 1 1 -0.106000 22.431000 14.813000 107.531998
333 1 1 -0.106000 22.375999 13.530000 108.365997
334 1 1 -0.106000 21.635000 12.421000 107.612999
335 1 3 -0.159000 21.568001 11.143000 108.445999
336 1 4 0.053000 21.025000 10.359000 107.878998
337 1 4 0.053000 21.028999 11.333000 109.398003
338 1 4 0.053000 22.591999 10.777000 108.670998
339 1 4 0.053000 22.159000 12.201000 106.656998
340 1 4 0.053000 20.599001 12.752000 107.383003
341 1 4 0.053000 21.847000 13.739000 109.321999
342 1 4 0.053000 23.410999 13.194000 108.594002
343 1 4 0.053000 22.965000 14.613000 106.575996
344 1 4 0.053000 21.393999 15.144000 107.300003
345 1 4 0.053000 22.620001 16.120001 109.250000
346 1 4 0.053000 24.195000 15.607000 108.523003
347 1 4 0.053000 22.146999 17.528999 107.237000
348 1 4 0.053000 23.732000 17.035999 106.515999
349 1 4 0.053000 24.929001 18.040001 108.480003
350 1 4 0.053000 23.339001 18.514000 109.200996
351 1 4 0.053000 22.847000 19.927999 107.194000
352 1 4 0.053000 24.445999 19.469999 106.480003
353 1 4 0.053000 25.608999 20.480000 108.459000
354 1 4 0.053000 24.007000 20.927999 109.169998
355 1 4 0.053000 23.513000 22.349001 107.165001
356 1 4 0.053000 25.118999 21.903999 106.459000
357 1 4 0.053000 26.266001 22.907000 108.447998
358 1 4 0.053000 24.660000 23.361000 109.146004
359 1 4 0.053000 24.194000 24.790001 107.137001
360 1 4 0.053000 25.797001 24.322001 106.441002
361 1 4 0.053000 26.948999 25.306000 108.432999
362 1 4 0.053000 25.348000 25.795000 109.120003
363 1 4 0.053000 24.929001 27.229000 107.102997
364 1 4 0.053000 26.523001 26.719999 106.416000
365 1 4 0.053000 27.684000 27.663000 108.403999
366 1 4 0.053000 26.093000 28.194000 109.083000
367 1 4 0.053000 25.707001 29.607000 107.035004
368 1 4 0.053000 27.281000 29.070000 106.363998
369 1 4 0.053000 27.973000 31.350000 106.094002
370 1 4 0.053000 27.926001 32.500999 107.472000
371 1 4 0.053000 26.392000 31.900999 106.753998
372 1 4 0.053000 26.750000 30.101000 109.994003
373 1 4 0.053000 25.642000 31.107000 108.987999
374 1 4 0.053000 27.169001 31.797001 109.648003
375 1 4 0.053000 28.903000 29.360001 109.099998
376 1 4 0.053000 29.365999 31.035000 108.722000
377 1 4 0.053000 29.392000 29.792999 107.418999
378 1 5 -1.000000 28.482000 30.302000 109.671997
379 1 1 -0.106000 17.899000 46.036999 53.817001
380 1 1 -0.106000 19.017000 45.026001 53.551998
381 1 1 -0.106000 18.471001 43.595001 53.574001
382 1 1 -0.106000 19.596001 42.583000 53.334999
383 1 1 -0.106000 19.056999 41.151001 53.386002
384 1 1 -0.106000 20.181999 40.139999 53.157001
385 1 1 -0.106000 19.645000 38.709000 53.216999
386 1 1 -0.106000 20.764000 37.695000 52.973999
387 1 1 -0.106000 20.216000 36.266998 53.019001
388 1 1 -0.106000 21.323000 35.244999 52.743000
389 1 1 -0.106000 20.760000 33.820000 52.764000
390 1 1 0.301100 21.868000 32.790001 52.452000
391 1 2 -0.628400 21.427999 31.360001 52.430000
392 1 3 0.248100 20.392000 31.128000 51.395000
393 1 3 0.248100 20.909000 30.934000 53.752998
394 1 3 0.248100 22.608000 30.525999 52.102001
395 1 1 -0.106000 18.448999 47.466999 53.830002
396 1 1 -0.106000 17.334999 48.477001 54.118999
397 1 1 -0.106000 17.886999 49.904999 54.151001
398 1 3 -0.159000 16.781000 50.914001 54.450001
399 1 4 0.053000 17.208000 51.938000 54.470001
400 1 4 0.053000 16.323000 50.699001 55.438000
401 1 4 0.053000 15.997000 50.868999 53.665001
402 1 4 0.053000 18.344999 50.153000 53.167999
403 1 4 0.053000 18.667999 49.987000 54.938000
404 1 4 0.053000 16.875000 48.241001 55.104000
405 1 4 0.053000 16.554001 48.398998 53.331001
406 1 4 0.053000 18.909000 47.694000 52.841999
407 1 4 0.053000 19.231001 47.549999 54.617001
408 1 4 0.053000 17.436001 45.818001 54.806000
409 1 4 0.053000 17.120001 45.945000 53.028999
410 1 4 0.053000 19.796000 45.129002 54.340000
411 1 4 0.053000 19.478001 45.231998 52.561001
412 1 4 0.053000 17.695000 43.480000 52.785999
413 1 4 0.053000 18.007999 43.396000 54.566002
414 1 4 0.053000 20.372999 42.707001 54.119999
415 1 4 0.053000 20.056000 42.771000 52.340000
416 1 4 0.053000 18.278000 41.021999 52.601002
417 1 4 0.053000 18.594999 40.967999 54.381001
418 1 4 0.053000 20.962999 40.271999 53.939999
419 1 4 0.053000 20.641001 40.320999 52.159000
420 1 4 0.053000 18.860001 38.581001 52.438999
421 1 4 0.053000 19.191000 38.526001 54.216000
422 1 4 0.053000 21.551001 37.814999 53.750000
423 1 4 0.053000 21.215000 37.882999 51.973999
424 1 4 0.053000 19.422001 36.159000 52.249001
425 1 4 0.053000 19.773001 36.071999 54.021000
426 1 4 0.053000 22.120001 35.341999 53.513000
427 1 4 0.053000 21.764999 35.450001 51.743000
428 1 4 0.053000 19.957001 33.762001 52.000000
429 1 4 0.053000 20.325001 33.633999 53.766998
430 1 4 0.053000 22.674999 32.921001 53.210999
431 1 4 0.053000 22.305000 33.056999 51.462002
432 1 4 0.053000 23.028000 30.798000 51.106998
433 1 4 0.053000 22.344000 29.445000 52.070999
434 1 4 0.053000 23.415001 30.653999 52.860001
435 1 4 0.053000 19.969999 31.465000 54.016998
436 1 4 0.053000 21.657000 31.122999 54.555000
437 1 4 0.053000 20.669001 29.848000 53.756001
438 1 4 0.053000 19.443001 31.650000 51.636002
439 1 4 0.053000 20.141001 30.046000 51.317001
440 1 4 0.053000 20.740999 31.472000 50.396000
441 1 5 -1.000000 19.510000 30.792999 52.442001
442 1 1 -0.106000 44.008999 9.449000 68.903999
443 1 1 -0.106000 44.340000 9.983000 67.508003
444 1 1 -0.106000 45.758999 10.558000 67.469002
445 1 1 -0.106000 46.078999 11.117000 66.080002
446 1 1 -0.106000 47.486000 11.718000 66.046997
447 1 1 -0.106000 47.801998 12.284000 64.661003
448 1 1 -0.106000 49.205002 12.894000 64.633003
449 1 1 -0.106000 49.529999 13.448000 63.244999
450 1 1 -0.106000 50.941002 14.041000 63.217999
451 1 1 -0.106000 51.289001 14.569000 61.824001
452 1 1 -0.106000 52.713001 15.136000 61.800999
453 1 1 0.301100 53.078999 15.637000 60.386002
454 1 2 -0.628400 54.457001 16.200001 60.241001
455 1 3 0.248100 55.493000 15.189000 60.563999
456 1 3 0.248100 54.646999 17.393999 61.101002
457 1 3 0.248100 54.633999 16.612000 58.827999
458 1 1 -0.106000 42.577999 8.904000 68.954002
459 1 1 -0.106000 42.238998 8.391000 70.356003
460 1 1 -0.106000 40.800999 7.865000 70.412003
461 1 3 -0.159000 40.456001 7.363000 71.811996
462 1 4 0.053000 39.410999 6.990000 71.824997
463 1 4 0.053000 40.549999 8.187000 72.550003
464 1 4 0.053000 41.134998 6.533000 72.100998
465 1 4 0.053000 40.679001 7.029000 69.689003
466 1 4 0.053000 40.094002 8.678000 70.139000
467 1 4 0.053000 42.352001 9.223000 71.085999
468 1 4 0.053000 42.943001 7.575000 70.629997
469 1 4 0.053000 42.473000 8.075000 68.219002
470 1 4 0.053000 41.868999 9.717000 68.680000
471 1 4 0.053000 44.109001 10.274000 69.642998
472 1 4 0.053000 44.724998 8.640000 69.169998
473 1 4 0.053000 43.616001 10.786000 67.244003
474 1 4 0.053000 44.251999 9.161000 66.764000
475 1 4 0.053000 46.491001 9.761000 67.725998
476 1 4 0.053000 45.841999 11.377000 68.218002
477 1 4 0.053000 45.340000 11.907000 65.822998
478 1 4 0.053000 46.007000 10.299000 65.328003
479 1 4 0.053000 48.230000 10.930000 66.303001
480 1 4 0.053000 47.555000 12.532000 66.802002
481 1 4 0.053000 47.056000 13.070000 64.404999
482 1 4 0.053000 47.737999 11.469000 63.908001
483 1 4 0.053000 49.949001 12.109000 64.896004
484 1 4 0.053000 49.268002 13.713000 65.382004
485 1 4 0.053000 48.792999 14.236000 62.974998
486 1 4 0.053000 49.465000 12.625000 62.499001
487 1 4 0.053000 51.672001 13.251000 63.500999
488 1 4 0.053000 51.007000 14.871000 63.956001
489 1 4 0.053000 50.567001 15.364000 61.535000
490 1 4 0.053000 51.215000 13.735000 61.091000
491 1 4 0.053000 53.405998 14.326000 62.111000
492 1 4 0.053000 52.768002 15.965000 62.535999
493 1 4 0.053000 52.327999 16.410000 60.097000
494 1 4 0.053000 52.953999 14.781000 59.682999
495 1 4 0.053000 54.515999 15.745000 58.139999
496 1 4 0.053000 55.646000 17.042000 58.655998
497 1 4 0.053000 53.886002 17.385000 58.537998
498 1 4 0.053000 54.612999 17.132999 62.181000
499 1 4 0.053000 53.865002 18.160000 60.900002
500 1 4 0.053000 55.640999 17.861000 60.922001
501 1 4 0.053000 55.477001 14.910000 61.638000
502 1 4 0.053000 56.514000 15.583000 60.359001
503 1 4 0.053000 55.352001 14.266000 59.957001
504 1 5 -1.000000 55.879002 16.018999 61.636002
505 1 1 -0.106000 56.039001 45.035999 76.533997
506 1 1 -0.106000 55.092999 43.838001 76.418999
507 1 1 -0.106000 55.882999 42.533001 76.286003
508 1 1 -0.106000 54.936001 41.338001 76.143997
509 1 1 -0.106000 55.723999 40.035999 75.982002
510 1 1 -0.106000 54.778000 38.844002 75.830002
511 1 1 -0.106000 55.567001 37.544998 75.657997
512 1 1 -0.106000 54.623001 36.348000 75.521004
513 1 1 -0.106000 55.418999 35.049000 75.365997
514 1 1 -0.106000 54.484001 33.841999 75.262001
515 1 1 -0.106000 55.291000 32.543999 75.135002
516 1 1 0.301100 54.349998 31.320999 75.064003
517 1 2 -0.628400 55.030998 29.993999 74.953003
518 1 3 0.248100 55.903999 29.732000 76.122002
519 1 3 0.248100 55.831001 29.899000 73.707001
520 1 3 0.248100 53.981998 28.947001 74.913002
521 1 1 -0.106000 55.250000 46.345001 76.633003
522 1 1 -0.106000 56.195999 47.546001 76.723999
523 1 1 -0.106000 55.409000 48.856998 76.803001
524 1 3 -0.159000 56.348999 50.056999 76.883003
525 1 4 0.053000 55.754002 50.992001 76.936996
526 1 4 0.053000 56.998001 50.098000 75.983002
527 1 4 0.053000 56.986000 49.986000 77.790001
528 1 4 0.053000 54.757000 48.849998 77.704002
529 1 4 0.053000 54.769001 48.964001 75.901001
530 1 4 0.053000 56.848999 47.564999 75.823997
531 1 4 0.053000 56.835999 47.443001 77.628998
532 1 4 0.053000 54.598000 46.316002 77.535004
533 1 4 0.053000 54.608002 46.453999 75.730003
534 1 4 0.053000 56.692001 45.071999 75.634003
535 1 4 0.053000 56.678001 44.917999 77.436996
536 1 4 0.053000 54.451000 43.966000 75.519997
537 1 4 0.053000 54.444000 43.787998 77.320000
538 1 4 0.053000 56.525002 42.393002 77.183998
539 1 4 0.053000 56.534000 42.590000 75.385002
540 1 4 0.053000 54.291000 41.486000 75.250999
541 1 4 0.053000 54.289001 41.270000 77.046997
542 1 4 0.053000 56.372002 39.882999 76.874001
543 1 4 0.053000 56.370998 40.109001 75.080002
544 1 4 0.053000 54.127998 38.999001 74.939003
545 1 4 0.053000 54.133999 38.769001 76.734001
546 1 4 0.053000 56.220001 37.395000 76.545998
547 1 4 0.053000 56.206001 37.617001 74.750999
548 1 4 0.053000 53.967999 36.488998 74.633003
549 1 4 0.053000 53.985001 36.279999 76.430000
550 1 4 0.053000 56.080002 34.922001 76.250999
551 1 4 0.053000 56.050999 35.110001 74.452003
552 1 4 0.053000 53.823002 33.958000 74.375000
553 1 4 0.053000 53.852001 33.791000 76.176003
554 1 4 0.053000 55.952000 32.467999 76.022003
555 1 4 0.053000 55.912998 32.612000 74.219002
556 1 4 0.053000 53.671001 31.466999 74.190002
557 1 4 0.053000 53.713001 31.334000 75.977997
558 1 4 0.053000 53.360001 28.966000 75.835999
559 1 4 0.053000 54.428001 27.930000 74.830002
560 1 4 0.053000 53.304001 29.089001 74.041000
561 1 4 0.053000 56.689999 30.601999 73.716003
562 1 4 0.053000 55.205002 30.118000 72.813004
563 1 4 0.053000 56.259998 28.879000 73.585999
564 1 4 0.053000 56.770000 30.426001 76.153999
565 1 4 0.053000 56.328999 28.704000 76.082001
566 1 4 0.053000 55.335999 29.833000 77.073997
567 1 5 -1.000000 56.993999 29.730000 75.228996
568 1 1 -0.106000 21.172001 55.794998 83.511002
569 1 1 -0.106000 19.728001 55.305000 83.383003
570 1 1 -0.106000 18.914000 55.682999 84.624001
571 1 1 -0.106000 17.476999 55.167999 84.507004
572 1 1 -0.106000 16.671000 55.519001 85.760002
573 1 1 -0.106000 15.237000 54.997002 85.646004
574 1 1 -0.106000 14.435000 55.340000 86.903000
575 1 1 -0.106000 12.996000 54.833000 86.787003
576 1 1 -0.106000 12.195000 55.194000 88.040001
577 1 1 -0.106000 10.744000 54.719002 87.919998
578 1 1 -0.106000 9.943000 55.109001 89.167999
579 1 1 0.301100 8.471000 54.661999 89.033997
580 1 2 -0.628400 7.588000 55.005001 90.192001
581 1 3 0.248100 7.521000 56.471001 90.406998
582 1 3 0.248100 8.048000 54.342999 91.436996
583 1 3 0.248100 6.223000 54.518002 89.883003
584 1 1 -0.106000 21.996000 55.388000 82.285004
585 1 1 -0.106000 23.447001 55.858002 82.422997
586 1 1 -0.106000 24.275999 55.433998 81.207001
587 1 3 -0.159000 25.726000 55.890999 81.347000
588 1 4 0.053000 26.304001 55.570000 80.455002
589 1 4 0.053000 26.186001 55.439999 82.251999
590 1 4 0.053000 25.775000 56.998001 81.425003
591 1 4 0.053000 23.844999 55.881001 80.285004
592 1 4 0.053000 24.257999 54.327000 81.109001
593 1 4 0.053000 23.889999 55.410000 83.341003
594 1 4 0.053000 23.468000 56.965000 82.518997
595 1 4 0.053000 21.545000 55.838001 81.372002
596 1 4 0.053000 21.978001 54.279999 82.184998
597 1 4 0.053000 21.629999 55.346001 84.420998
598 1 4 0.053000 21.180000 56.902000 83.613998
599 1 4 0.053000 19.726999 54.198002 83.272003
600 1 4 0.053000 19.259001 55.757000 82.481003
601 1 4 0.053000 18.903999 56.789001 84.740997
602 1 4 0.053000 19.389999 55.230999 85.524002
603 1 4 0.053000 17.490999 54.063999 84.382004
604 1 4 0.053000 16.993000 55.625000 83.614998
605 1 4 0.053000 16.652000 56.625000 85.889000
606 1 4 0.053000 17.158001 55.063999 86.650002
607 1 4 0.053000 15.256000 53.891998 85.514000
608 1 4 0.053000 14.748000 55.457001 84.759003
609 1 4 0.053000 14.423000 56.445000 87.038002
610 1 4 0.053000 14.920000 54.875999 87.790001
611 1 4 0.053000 12.999000 53.729000 86.654999
612 1 4 0.053000 12.516000 55.298000 85.898003
613 1 4 0.053000 12.207000 56.298000 88.171997
614 1 4 0.053000 12.667000 54.721001 88.930000
615 1 4 0.053000 10.722000 53.615002 87.793999
616 1 4 0.053000 10.280000 55.191002 87.025002
617 1 4 0.053000 10.000000 56.212002 89.276001
618 1 4 0.053000 10.419000 54.630001 90.047997
619 1 4 0.053000 8.466000 53.557999 88.875000
620 1 4 0.053000 8.061000 55.126999 88.107002
621 1 4 0.053000 5.824000 54.997002 88.959999
622 1 4 0.053000 5.515000 54.743000 90.711998
623 1 4 0.053000 6.215000 53.414001 89.724998
624 1 4 0.053000 9.034000 54.733002 91.769997
625 1 4 0.053000 8.135000 53.243000 91.295998
626 1 4 0.053000 7.337000 54.528000 92.273003
627 1 4 0.053000 8.495000 56.883999 90.738998