LAMMPS data file containing the original structures and the polarizable gold

19887 atoms
15896 bonds
24210 angles
34515 dihedrals
0 impropers

7 atom types
7 bond types
13 angle types
15 dihedral types

-48.229824 57.063999 xlo xhi
-3.000000 57.000000 ylo yhi
-3.000000 90.364571 zlo zhi

Masses

1 12.011150
2 14.006700
3 12.011150
4 1.007970
5 79.908997
6 195.960007
7 1.000000

Atoms

1 0 1 -0.106000 43.667999 45.162998 470.174011
2 0 1 -0.106000 44.522999 44.519001 471.266998
3 0 1 -0.106000 43.640999 43.813999 472.302002
4 0 1 -0.106000 44.495998 43.193001 473.410004
5 0 1 -0.106000 43.612999 42.514000 474.459991
6 0 1 -0.106000 44.466999 41.901001 475.571991
7 0 1 -0.106000 43.584000 41.230999 476.626007
8 0 1 -0.106000 44.435001 40.605000 477.731995
9 0 1 -0.106000 43.546001 39.921001 478.773987
10 0 1 -0.106000 44.389999 39.262001 479.868011
11 0 1 -0.106000 43.493000 38.557999 480.891998
12 0 1 0.301100 44.342999 37.862999 481.977997
13 0 2 -0.628400 43.569000 37.127998 483.026001
14 0 3 0.248100 42.750000 36.042000 482.434998
15 0 3 0.248100 42.694000 38.044998 483.795013
16 0 3 0.248100 44.541000 36.516998 483.963989
17 0 1 -0.106000 44.548000 45.896999 469.156006
18 0 1 -0.106000 43.691002 46.563000 468.075012
19 0 1 -0.106000 44.568001 47.313999 467.067993
20 0 3 -0.159000 43.716999 47.987000 465.994995
21 0 4 0.053000 44.375999 48.525002 465.282013
22 0 4 0.053000 43.021000 48.717999 466.459015
23 0 4 0.053000 43.130001 47.227001 465.437012
24 0 4 0.053000 45.270000 46.603001 466.579010
25 0 4 0.053000 45.160999 48.092999 467.596008
26 0 4 0.053000 42.990002 47.280998 468.554993
27 0 4 0.053000 43.099998 45.785000 467.542999
28 0 4 0.053000 45.248001 45.173000 468.683014
29 0 4 0.053000 45.141998 46.676998 469.683014
30 0 4 0.053000 42.967999 45.891998 470.640015
31 0 4 0.053000 43.076000 44.377998 469.654999
32 0 4 0.053000 45.118999 45.307999 471.777008
33 0 4 0.053000 45.219002 43.782001 470.809998
34 0 4 0.053000 43.044998 43.019001 471.803009
35 0 4 0.053000 42.944000 44.556000 472.752991
36 0 4 0.053000 45.096001 43.990002 473.899994
37 0 4 0.053000 45.187000 42.443001 472.964996
38 0 4 0.053000 43.009998 41.714001 473.973999
39 0 4 0.053000 42.921001 43.265999 474.899994
40 0 4 0.053000 45.073002 42.701000 476.056000
41 0 4 0.053000 45.155998 41.146000 475.131989
42 0 4 0.053000 42.974998 40.437000 476.140015
43 0 4 0.053000 42.898998 41.987000 477.070007
44 0 4 0.053000 45.044998 41.393002 478.225006
45 0 4 0.053000 45.118999 39.849998 477.282990
46 0 4 0.053000 42.931000 39.144001 478.270996
47 0 4 0.053000 42.868000 40.674999 479.231995
48 0 4 0.053000 45.005001 40.034000 480.381012
49 0 4 0.053000 45.070000 38.514000 479.402008
50 0 4 0.053000 42.880001 37.808998 480.347992
51 0 4 0.053000 42.824001 39.317001 481.346008
52 0 4 0.053000 44.978001 38.641998 482.460999
53 0 4 0.053000 45.032001 37.153999 481.463013
54 0 4 0.053000 45.216000 35.806000 483.437988
55 0 4 0.053000 44.023998 35.952999 484.773010
56 0 4 0.053000 45.175999 37.294998 484.449005
57 0 4 0.053000 41.884998 38.470001 483.161987
58 0 4 0.053000 43.278999 38.887001 484.227997
59 0 4 0.053000 42.191002 37.509998 484.630005
60 0 4 0.053000 41.936001 36.442001 481.795013
61 0 4 0.053000 42.256001 35.438000 483.227997
62 0 4 0.053000 43.377998 35.358002 481.821991
63 0 5 -1.000000 41.612000 36.738998 482.889008
64 0 1 -0.106000 29.384001 11.806000 184.201004
65 0 1 -0.106000 30.181000 13.053000 183.811005
66 0 1 -0.106000 31.660999 12.884000 184.162003
67 0 1 -0.106000 32.452000 14.143000 183.796005
68 0 1 -0.106000 33.926998 13.987000 184.173996
69 0 1 -0.106000 34.715000 15.248000 183.815994
70 0 1 -0.106000 36.187000 15.095000 184.203003
71 0 1 -0.106000 36.981998 16.349001 183.834000
72 0 1 -0.106000 38.457001 16.181999 184.207993
73 0 1 -0.106000 39.266998 17.419001 183.811005
74 0 1 -0.106000 40.747002 17.231001 184.164993
75 0 1 0.301100 41.571999 18.464001 183.735001
76 0 2 -0.628400 43.039001 18.385000 184.018997
77 0 3 0.248100 43.667999 17.243000 183.311996
78 0 3 0.248100 43.303001 18.271999 185.473999
79 0 3 0.248100 43.665001 19.636000 183.528000
80 0 1 -0.106000 27.896999 11.987000 183.880997
81 0 1 -0.106000 27.096001 10.748000 184.294006
82 0 1 -0.106000 25.606001 10.936000 183.992996
83 0 3 -0.159000 24.802999 9.708000 184.412994
84 0 4 0.053000 23.729000 9.871000 184.186005
85 0 4 0.053000 24.915001 9.530000 185.503006
86 0 4 0.053000 25.153000 8.811000 183.858002
87 0 4 0.053000 25.462000 11.105000 182.903000
88 0 4 0.053000 25.221001 11.821000 184.544998
89 0 4 0.053000 27.229000 10.574000 185.384995
90 0 4 0.053000 27.476999 9.862000 183.740005
91 0 4 0.053000 27.773001 12.163000 182.789001
92 0 4 0.053000 27.510000 12.873000 184.432999
93 0 4 0.053000 29.500999 11.626000 185.292999
94 0 4 0.053000 29.778999 10.925000 183.647995
95 0 4 0.053000 29.775000 13.932000 184.360992
96 0 4 0.053000 30.077000 13.234000 182.718002
97 0 4 0.053000 32.077000 12.011000 183.613007
98 0 4 0.053000 31.757999 12.699000 185.255997
99 0 4 0.053000 32.028000 15.014000 184.341003
100 0 4 0.053000 32.367001 14.327000 182.701996
101 0 4 0.053000 34.356998 13.115000 183.630005
102 0 4 0.053000 34.007999 13.801000 185.266998
103 0 4 0.053000 34.283001 16.120001 184.356995
104 0 4 0.053000 34.638000 15.432000 182.722000
105 0 4 0.053000 36.616001 14.219000 183.666000
106 0 4 0.053000 36.265999 14.917000 185.298004
107 0 4 0.053000 36.561001 17.228001 184.367996
108 0 4 0.053000 36.900002 16.523001 182.738007
109 0 4 0.053000 38.867001 15.294000 183.679001
110 0 4 0.053000 38.542999 16.018000 185.304993
111 0 4 0.053000 38.868000 18.312000 184.341003
112 0 4 0.053000 39.171001 17.580999 182.714996
113 0 4 0.053000 41.110001 16.325001 183.638000
114 0 4 0.053000 40.823002 17.073000 185.261002
115 0 4 0.053000 41.139999 19.356001 184.246994
116 0 4 0.053000 41.415001 18.608000 182.641006
117 0 4 0.053000 43.507000 19.761999 182.434006
118 0 4 0.053000 44.763000 19.639000 183.712006
119 0 4 0.053000 43.236000 20.528000 184.039993
120 0 4 0.053000 42.932999 17.309000 185.886002
121 0 4 0.053000 42.818001 19.103001 186.033997
122 0 4 0.053000 44.395000 18.305000 185.684998
123 0 4 0.053000 43.311001 16.268000 183.705002
124 0 4 0.053000 44.771999 17.249001 183.447006
125 0 4 0.053000 43.455002 17.283001 182.220001
126 0 5 -1.000000 43.969002 16.705999 184.580002
127 0 1 -0.106000 39.841000 10.598000 64.038002
128 0 1 -0.106000 38.438999 10.696000 64.643997
129 0 1 -0.106000 37.479000 11.400000 63.681000
130 0 1 -0.106000 36.084000 11.523000 64.300003
131 0 1 -0.106000 35.131001 12.252000 63.351002
132 0 1 -0.106000 33.738998 12.382000 63.973000
133 0 1 -0.106000 32.790001 13.120000 63.027000
134 0 1 -0.106000 31.393000 13.239000 63.639999
135 0 1 -0.106000 30.444000 13.963000 62.681999
136 0 1 -0.106000 29.035000 14.058000 63.271999
137 0 1 -0.106000 28.086000 14.760000 62.293999
138 0 1 0.301100 26.655001 14.826000 62.873001
139 0 2 -0.628400 25.636999 15.481000 61.993999
140 0 3 0.248100 25.490999 14.762000 60.705002
141 0 3 0.248100 25.980000 16.900000 61.733002
142 0 3 0.248100 24.334000 15.439000 62.699001
143 0 1 -0.106000 40.811001 9.924000 65.014000
144 0 1 -0.106000 42.219002 9.847000 64.417000
145 0 1 -0.106000 43.194000 9.191000 65.400002
146 0 3 -0.159000 44.601002 9.123000 64.811996
147 0 4 0.053000 45.285999 8.647000 65.543999
148 0 4 0.053000 44.973000 10.145000 64.586998
149 0 4 0.053000 44.598999 8.520000 63.880001
150 0 4 0.053000 42.851002 8.160000 65.637001
151 0 4 0.053000 43.228001 9.780000 66.342003
152 0 4 0.053000 42.573002 10.875000 64.182999
153 0 4 0.053000 42.188000 9.255000 63.476002
154 0 4 0.053000 40.448002 8.897000 65.245003
155 0 4 0.053000 40.846001 10.512000 65.958000
156 0 4 0.053000 40.210999 11.622000 63.807999
157 0 4 0.053000 39.796001 10.012000 63.094002
158 0 4 0.053000 38.492001 11.276000 65.593002
159 0 4 0.053000 38.057999 9.676000 64.867996
160 0 4 0.053000 37.415001 10.825000 62.731998
161 0 4 0.053000 37.868000 12.419000 63.458000
162 0 4 0.053000 36.153000 12.091000 65.252998
163 0 4 0.053000 35.686001 10.506000 64.515999
164 0 4 0.053000 35.056999 11.686000 62.395000
165 0 4 0.053000 35.533001 13.267000 63.134998
166 0 4 0.053000 33.813999 12.945000 64.931000
167 0 4 0.053000 33.334999 11.367000 64.183998
168 0 4 0.053000 32.722000 12.559000 62.068001
169 0 4 0.053000 33.189999 14.137000 62.820000
170 0 4 0.053000 31.452000 13.801000 64.598000
171 0 4 0.053000 30.997000 12.220000 63.847000
172 0 4 0.053000 30.400000 13.402000 61.723000
173 0 4 0.053000 30.832001 14.987000 62.480999
174 0 4 0.053000 29.068001 14.623000 64.228996
175 0 4 0.053000 28.656000 13.032000 63.476002
176 0 4 0.053000 28.089001 14.184000 61.346001
177 0 4 0.053000 28.478001 15.780000 62.104000
178 0 4 0.053000 26.709000 15.366000 63.848000
179 0 4 0.053000 26.334999 13.782000 63.096001
180 0 4 0.053000 24.021999 14.391000 62.907001
181 0 4 0.053000 23.530001 15.914000 62.092999
182 0 4 0.053000 24.385000 15.979000 63.672001
183 0 4 0.053000 26.907000 16.995001 61.127998
184 0 4 0.053000 26.122999 17.458000 62.685001
185 0 4 0.053000 25.174000 17.405001 61.154999
186 0 4 0.053000 26.407000 14.841000 60.083000
187 0 4 0.053000 24.664000 15.194000 60.098000
188 0 4 0.053000 25.268999 13.685000 60.872002
189 0 5 -1.000000 25.959000 15.932000 60.071999
190 0 1 -0.106000 32.948002 7.911000 528.700989
191 0 1 -0.106000 34.348000 7.786000 529.307007
192 0 1 -0.106000 35.195000 9.018000 528.976990
193 0 1 -0.106000 36.604000 8.879000 529.560974
194 0 1 -0.106000 37.460999 10.096000 529.205994
195 0 1 -0.106000 38.870998 9.953000 529.781982
196 0 1 -0.106000 39.730000 11.165000 529.419006
197 0 1 -0.106000 41.137001 11.033000 530.005981
198 0 1 -0.106000 41.985001 12.257000 529.653015
199 0 1 -0.106000 43.384998 12.149000 530.263977
200 0 1 -0.106000 44.217999 13.392000 529.927979
201 0 1 0.301100 45.618999 13.301000 530.572998
202 0 2 -0.628400 46.516998 14.471000 530.322998
203 0 3 0.248100 45.935001 15.725000 530.856995
204 0 3 0.248100 46.800999 14.635000 528.875977
205 0 3 0.248100 47.799000 14.218000 531.023010
206 0 1 -0.106000 32.110001 6.665000 529.002014
207 0 1 -0.106000 30.718000 6.779000 528.375000
208 0 1 -0.106000 29.885000 5.525000 528.658997
209 0 3 -0.159000 28.500999 5.631000 528.026001
210 0 4 0.053000 27.921000 4.710000 528.244019
211 0 4 0.053000 28.589001 5.745000 526.924988
212 0 4 0.053000 27.954000 6.505000 528.440979
213 0 4 0.053000 29.771000 5.391000 529.755981
214 0 4 0.053000 30.400999 4.632000 528.242981
215 0 4 0.053000 30.822001 6.907000 527.275024
216 0 4 0.053000 30.198000 7.670000 528.791992
217 0 4 0.053000 32.013000 6.543000 530.104004
218 0 4 0.053000 32.625000 5.770000 528.586975
219 0 4 0.053000 33.037998 8.030000 527.598022
220 0 4 0.053000 32.442001 8.809000 529.117981
221 0 4 0.053000 34.845001 6.881000 528.892029
222 0 4 0.053000 34.266998 7.677000 530.411011
223 0 4 0.053000 34.709000 9.927000 529.393005
224 0 4 0.053000 35.269001 9.124000 527.870972
225 0 4 0.053000 37.083000 7.964000 529.148987
226 0 4 0.053000 36.535999 8.782000 530.668030
227 0 4 0.053000 36.985001 11.015000 529.617004
228 0 4 0.053000 37.523998 10.191000 528.099976
229 0 4 0.053000 39.345001 9.032000 529.374023
230 0 4 0.053000 38.807999 9.863000 530.888977
231 0 4 0.053000 39.250999 12.086000 529.822021
232 0 4 0.053000 39.798000 11.253000 528.312012
233 0 4 0.053000 41.623001 10.117000 529.604980
234 0 4 0.053000 41.063000 10.945000 531.112976
235 0 4 0.053000 41.486000 13.170000 530.046021
236 0 4 0.053000 42.069000 12.342000 528.546997
237 0 4 0.053000 43.894001 11.242000 529.872009
238 0 4 0.053000 43.292999 12.058000 531.369019
239 0 4 0.053000 43.674999 14.279000 530.315002
240 0 4 0.053000 44.299000 13.465000 528.823975
241 0 4 0.053000 46.105000 12.370000 530.195984
242 0 4 0.053000 45.476002 13.173000 531.671021
243 0 4 0.053000 47.640999 14.101000 532.119019
244 0 4 0.053000 48.514000 15.057000 530.874023
245 0 4 0.053000 48.286999 13.289000 530.646973
246 0 4 0.053000 45.889999 14.914000 528.306030
247 0 4 0.053000 47.215000 13.697000 528.442017
248 0 4 0.053000 47.541000 15.448000 528.705017
249 0 4 0.053000 45.020000 16.024000 530.304016
250 0 4 0.053000 46.650002 16.572001 530.757019
251 0 4 0.053000 45.678001 15.619000 531.934998
252 0 5 -1.000000 45.891998 16.197001 529.528992
253 0 1 -0.106000 27.444000 10.615000 235.580994
254 0 1 -0.106000 26.010000 10.917000 235.139999
255 0 1 -0.106000 25.777000 12.428000 235.048004
256 0 1 -0.106000 24.333000 12.728000 234.634003
257 0 1 -0.106000 24.090000 14.238000 234.569000
258 0 1 -0.106000 22.646000 14.538000 234.164001
259 0 1 -0.106000 22.400999 16.047001 234.110001
260 0 1 -0.106000 20.962000 16.351999 233.690994
261 0 1 -0.106000 20.729000 17.863001 233.621994
262 0 1 -0.106000 19.299999 18.177999 233.171005
263 0 1 -0.106000 19.084999 19.693001 233.078995
264 0 1 0.301100 17.655001 20.014000 232.589996
265 0 2 -0.628400 17.336000 21.468000 232.447998
266 0 3 0.248100 18.228001 22.125000 231.462997
267 0 3 0.248100 17.433001 22.173000 233.750000
268 0 3 0.248100 15.941000 21.582001 231.960007
269 0 1 -0.106000 27.670000 9.105000 235.707001
270 0 1 -0.106000 29.098000 8.804000 236.169998
271 0 1 -0.106000 29.318001 7.295000 236.315002
272 0 3 -0.159000 30.738001 6.992000 236.787994
273 0 4 0.053000 30.868999 5.894000 236.886993
274 0 4 0.053000 30.923000 7.464000 237.776001
275 0 4 0.053000 31.478001 7.376000 236.054001
276 0 4 0.053000 29.149000 6.795000 235.337006
277 0 4 0.053000 28.599001 6.881000 237.054993
278 0 4 0.053000 29.274000 9.295000 237.153000
279 0 4 0.053000 29.819000 9.214000 235.429993
280 0 4 0.053000 27.489000 8.622000 234.720001
281 0 4 0.053000 26.950001 8.689000 236.447006
282 0 4 0.053000 27.631001 11.093000 236.567993
283 0 4 0.053000 28.157000 11.037000 234.837997
284 0 4 0.053000 25.302000 10.486000 235.882996
285 0 4 0.053000 25.819000 10.451000 234.149002
286 0 4 0.053000 26.476000 12.867000 234.302994
287 0 4 0.053000 25.973000 12.889000 236.042007
288 0 4 0.053000 23.638000 12.280000 235.376007
289 0 4 0.053000 24.135000 12.278000 233.636002
290 0 4 0.053000 24.785000 14.692000 233.826996
291 0 4 0.053000 24.292999 14.685000 235.567001
292 0 4 0.053000 21.952000 14.081000 234.904999
293 0 4 0.053000 22.445000 14.095000 233.164001
294 0 4 0.053000 23.100000 16.504000 233.373993
295 0 4 0.053000 22.596001 16.490999 235.110992
296 0 4 0.053000 20.257000 15.902000 234.423004
297 0 4 0.053000 20.771000 15.906000 232.688995
298 0 4 0.053000 21.445999 18.306999 232.897003
299 0 4 0.053000 20.909000 18.311001 234.623993
300 0 4 0.053000 18.576000 17.743000 233.893997
301 0 4 0.053000 19.125999 17.723000 232.171005
302 0 4 0.053000 19.833000 20.099001 232.365997
303 0 4 0.053000 19.261999 20.129999 234.082993
304 0 4 0.053000 16.940001 19.542999 233.306000
305 0 4 0.053000 17.514000 19.507000 231.608002
306 0 4 0.053000 15.818000 21.079000 230.975006
307 0 4 0.053000 15.642000 22.646999 231.834000
308 0 4 0.053000 15.225000 21.114000 232.673996
309 0 4 0.053000 18.476999 22.198000 234.126999
310 0 4 0.053000 16.792999 21.683001 234.518005
311 0 4 0.053000 17.107000 23.232000 233.654007
312 0 4 0.053000 19.278999 22.160000 231.817001
313 0 4 0.053000 17.922001 23.181000 231.289001
314 0 4 0.053000 18.202000 21.594000 230.485001
315 0 5 -1.000000 18.714001 22.916000 232.524002
316 0 1 -0.106000 22.362000 35.719002 389.710999
317 0 1 -0.106000 21.718000 35.630001 391.096008
318 0 1 -0.106000 21.792999 36.978001 391.817993
319 0 1 -0.106000 21.172001 36.880001 393.214996
320 0 1 -0.106000 21.273001 38.219002 393.947998
321 0 1 -0.106000 20.660999 38.118000 395.346985
322 0 1 -0.106000 20.770000 39.455002 396.083008
323 0 1 -0.106000 20.146000 39.362999 397.476990
324 0 1 -0.106000 20.243999 40.707001 398.201996
325 0 1 -0.106000 19.591999 40.633999 399.584991
326 0 1 -0.106000 19.671000 41.993000 400.290985
327 0 1 0.301100 18.983000 41.931000 401.673004
328 0 2 -0.628400 18.987000 43.209000 402.449005
329 0 3 0.248100 18.275999 44.287998 401.721008
330 0 3 0.248100 20.368999 43.650002 402.760010
331 0 3 0.248100 18.277000 42.966999 403.727997
332 0 1 -0.106000 22.319000 34.362000 389.001007
333 0 1 -0.106000 22.985001 34.445000 387.623993
334 0 1 -0.106000 22.959000 33.084000 386.921997
335 0 3 -0.159000 23.632000 33.160999 385.553986
336 0 4 0.053000 23.601999 32.164001 385.067993
337 0 4 0.053000 24.691999 33.473000 385.664001
338 0 4 0.053000 23.101999 33.889999 384.904999
339 0 4 0.053000 21.907000 32.750999 386.787994
340 0 4 0.053000 23.495001 32.333000 387.541992
341 0 4 0.053000 24.041000 34.771999 387.748993
342 0 4 0.053000 22.448999 35.194000 387.001007
343 0 4 0.053000 21.260000 34.041000 388.882996
344 0 4 0.053000 22.854000 33.608002 389.621002
345 0 4 0.053000 23.423000 36.035999 389.821991
346 0 4 0.053000 21.823999 36.476002 389.098999
347 0 4 0.053000 22.256001 34.865002 391.700012
348 0 4 0.053000 20.653999 35.321999 390.993011
349 0 4 0.053000 21.253000 37.748001 391.225006
350 0 4 0.053000 22.858999 37.280998 391.914001
351 0 4 0.053000 21.709000 36.103001 393.800995
352 0 4 0.053000 20.103001 36.585999 393.122986
353 0 4 0.053000 20.735001 39.000999 393.364990
354 0 4 0.053000 22.341999 38.511002 394.035004
355 0 4 0.053000 21.195999 37.334000 395.928986
356 0 4 0.053000 19.589001 37.831001 395.259003
357 0 4 0.053000 20.240000 40.238998 395.497009
358 0 4 0.053000 21.841000 39.740002 396.175995
359 0 4 0.053000 20.672001 38.583000 398.071014
360 0 4 0.053000 19.075001 39.076000 397.378998
361 0 4 0.053000 19.726000 41.483002 397.596008
362 0 4 0.053000 21.313999 40.991001 398.309998
363 0 4 0.053000 20.107000 39.863998 400.200012
364 0 4 0.053000 18.524000 40.344002 399.468994
365 0 4 0.053000 19.166000 42.741001 399.645996
366 0 4 0.053000 20.740999 42.264999 400.398987
367 0 4 0.053000 19.488001 41.132000 402.266998
368 0 4 0.053000 17.931000 41.599998 401.510010
369 0 4 0.053000 17.226000 42.646000 403.549988
370 0 4 0.053000 18.246000 43.886002 404.355011
371 0 4 0.053000 18.781000 42.171001 404.322998
372 0 4 0.053000 20.927000 43.931999 401.842010
373 0 4 0.053000 20.934999 42.848000 403.283997
374 0 4 0.053000 20.362000 44.549999 403.414001
375 0 4 0.053000 18.813999 44.585999 400.796997
376 0 4 0.053000 18.195999 45.206001 402.345001
377 0 4 0.053000 17.246000 43.970001 401.442993
378 0 5 -1.000000 19.504999 44.976002 401.669006
379 0 1 -0.106000 55.469002 41.577000 458.725006
380 0 1 -0.106000 54.563000 42.236000 459.766998
381 0 1 -0.106000 55.165001 42.108002 461.169006
382 0 1 -0.106000 54.244999 42.743999 462.214996
383 0 1 -0.106000 54.831001 42.590000 463.619995
384 0 1 -0.106000 53.907001 43.217999 464.665009
385 0 1 -0.106000 54.488998 43.055000 466.070007
386 0 1 -0.106000 53.575001 43.695000 467.117004
387 0 1 -0.106000 54.172001 43.542999 468.518005
388 0 1 -0.106000 53.279999 44.209000 469.570007
389 0 1 -0.106000 53.898998 44.076000 470.966003
390 0 1 0.301100 53.019001 44.777000 472.023010
391 0 2 -0.628400 53.535000 44.723000 473.425995
392 0 3 0.248100 54.861000 45.379002 473.541992
393 0 3 0.248100 53.631001 43.326000 473.914001
394 0 3 0.248100 52.578999 45.453999 474.290985
395 0 1 -0.106000 54.852001 41.674999 457.325989
396 0 1 -0.106000 55.745998 40.993999 456.286011
397 0 1 -0.106000 55.120998 41.074001 454.890015
398 0 3 -0.159000 56.005001 40.387001 453.852997
399 0 4 0.053000 55.528000 40.457001 452.852997
400 0 4 0.053000 56.137001 39.314999 454.110992
401 0 4 0.053000 57.000000 40.879002 453.809998
402 0 4 0.053000 54.986000 42.139000 454.600006
403 0 4 0.053000 54.125999 40.577999 454.897003
404 0 4 0.053000 55.882000 39.925999 456.565002
405 0 4 0.053000 56.741001 41.491001 456.274994
406 0 4 0.053000 54.716999 42.747002 457.056000
407 0 4 0.053000 53.855000 41.179001 457.330994
408 0 4 0.053000 55.605000 40.504002 458.985992
409 0 4 0.053000 56.463001 42.076000 458.727997
410 0 4 0.053000 53.568001 41.737999 459.752991
411 0 4 0.053000 54.430000 43.312000 459.518005
412 0 4 0.053000 56.158001 42.608002 461.195007
413 0 4 0.053000 55.299999 41.028999 461.411011
414 0 4 0.053000 53.250999 42.247002 462.178986
415 0 4 0.053000 54.115002 43.825001 461.983002
416 0 4 0.053000 55.827000 43.087002 463.660004
417 0 4 0.053000 54.962002 41.508999 463.846985
418 0 4 0.053000 52.910000 42.723000 464.622009
419 0 4 0.053000 53.779999 44.299999 464.441010
420 0 4 0.053000 55.487999 43.543999 466.109985
421 0 4 0.053000 54.611000 41.973000 466.298004
422 0 4 0.053000 52.575001 43.209000 467.085999
423 0 4 0.053000 53.455002 44.776001 466.885010
424 0 4 0.053000 55.175999 44.020000 468.537994
425 0 4 0.053000 54.283001 42.462002 468.756989
426 0 4 0.053000 52.275002 43.734001 469.561005
427 0 4 0.053000 53.167999 45.287998 469.321014
428 0 4 0.053000 54.905998 44.541000 470.936005
429 0 4 0.053000 54.001999 42.995998 471.196991
430 0 4 0.053000 52.005001 44.313999 471.980988
431 0 4 0.053000 52.903999 45.841999 471.713013
432 0 4 0.053000 52.480999 46.516998 473.975006
433 0 4 0.053000 52.909000 45.449001 475.354004
434 0 4 0.053000 51.566002 44.992001 474.252014
435 0 4 0.053000 54.400002 42.748001 473.359009
436 0 4 0.053000 52.654999 42.799999 473.812988
437 0 4 0.053000 53.928001 43.298000 474.985992
438 0 4 0.053000 55.646999 44.820000 472.992004
439 0 4 0.053000 55.193001 45.423000 474.602997
440 0 4 0.053000 54.827000 46.419998 473.148010
441 0 5 -1.000000 55.382000 44.119999 473.903992
442 0 1 -0.106000 21.475000 50.159000 325.747009
443 0 1 -0.106000 21.141001 51.327000 326.678009
444 0 1 -0.106000 20.045000 50.932999 327.671997
445 0 1 -0.106000 19.691999 52.112000 328.584015
446 0 1 -0.106000 18.576000 51.729000 329.558990
447 0 1 -0.106000 18.218000 52.909000 330.463989
448 0 1 -0.106000 17.096001 52.528000 331.431000
449 0 1 -0.106000 16.745001 53.702000 332.348999
450 0 1 -0.106000 15.633000 53.308998 333.325012
451 0 1 -0.106000 15.298000 54.466000 334.269012
452 0 1 -0.106000 14.203000 54.054001 335.260010
453 0 1 0.301100 13.888000 55.209000 336.237000
454 0 2 -0.628400 12.840000 54.912998 337.263000
455 0 3 0.248100 13.237000 53.779999 338.131989
456 0 3 0.248100 11.532000 54.616001 336.628998
457 0 3 0.248100 12.683000 56.118000 338.112000
458 0 1 -0.106000 22.548000 50.561001 324.730011
459 0 1 -0.106000 22.865000 49.400002 323.783997
460 0 1 -0.106000 23.923000 49.806999 322.753998
461 0 3 -0.159000 24.233000 48.654999 321.802002
462 0 4 0.053000 24.999001 48.977001 321.066010
463 0 4 0.053000 23.316000 48.352001 321.252991
464 0 4 0.053000 24.625999 47.784000 322.368011
465 0 4 0.053000 24.858000 50.105999 323.274994
466 0 4 0.053000 23.552999 50.672001 322.160004
467 0 4 0.053000 21.934999 49.097000 323.252014
468 0 4 0.053000 23.237000 48.534000 324.375000
469 0 4 0.053000 23.473000 50.863998 325.269989
470 0 4 0.053000 22.180000 51.426998 324.135010
471 0 4 0.053000 20.555000 49.852001 325.201996
472 0 4 0.053000 21.837999 49.297001 326.350006
473 0 4 0.053000 20.785999 52.188000 326.069000
474 0 4 0.053000 22.054001 51.632999 327.234009
475 0 4 0.053000 20.392000 50.077000 328.290009
476 0 4 0.053000 19.135000 50.625000 327.109009
477 0 4 0.053000 19.354000 52.969002 327.962006
478 0 4 0.053000 20.596001 52.417999 329.157013
479 0 4 0.053000 18.910999 50.870998 330.184998
480 0 4 0.053000 17.676001 51.421001 328.983002
481 0 4 0.053000 17.886999 53.768002 329.838013
482 0 4 0.053000 19.118000 53.214001 331.042999
483 0 4 0.053000 17.426001 51.666000 332.052002
484 0 4 0.053000 16.194000 52.229000 330.852997
485 0 4 0.053000 16.410999 54.567001 331.735992
486 0 4 0.053000 17.650000 53.998001 332.924011
487 0 4 0.053000 15.971000 52.435001 333.924988
488 0 4 0.053000 14.724000 53.021000 332.752014
489 0 4 0.053000 14.954000 55.342999 333.678009
490 0 4 0.053000 16.212999 54.751999 334.834015
491 0 4 0.053000 14.568000 53.167999 335.820007
492 0 4 0.053000 13.300000 53.773998 334.681000
493 0 4 0.053000 13.576000 56.091000 335.628998
494 0 4 0.053000 14.838000 55.485001 336.748993
495 0 4 0.053000 13.637000 56.375999 338.623993
496 0 4 0.053000 11.911000 55.959999 338.899994
497 0 4 0.053000 12.370000 56.999001 337.506989
498 0 4 0.053000 11.562000 53.671001 336.046997
499 0 4 0.053000 11.222000 55.438999 335.947998
500 0 4 0.053000 10.737000 54.487000 337.398010
501 0 4 0.053000 13.276000 52.823002 337.571014
502 0 4 0.053000 12.501000 53.629002 338.954010
503 0 4 0.053000 14.234000 53.959999 338.592987
504 0 5 -1.000000 12.126000 53.078999 337.619995
505 0 1 -0.106000 40.625999 9.592000 253.350998
506 0 1 -0.106000 40.620998 11.050000 252.886993
507 0 1 -0.106000 39.196999 11.612000 252.871994
508 0 1 -0.106000 39.191002 13.062000 252.382004
509 0 1 -0.106000 37.764999 13.615000 252.339005
510 0 1 -0.106000 37.757999 15.062000 251.839996
511 0 1 -0.106000 36.331001 15.610000 251.787994
512 0 1 -0.106000 36.321999 17.061001 251.302994
513 0 1 -0.106000 34.893002 17.608999 251.270004
514 0 1 -0.106000 34.875999 19.072001 250.817993
515 0 1 -0.106000 33.445000 19.618999 250.813004
516 0 1 0.301100 33.429001 21.105000 250.391006
517 0 2 -0.628400 32.080002 21.750999 250.365005
518 0 3 0.248100 31.443001 21.731001 251.705002
519 0 3 0.248100 31.184000 21.093000 249.382996
520 0 3 0.248100 32.259998 23.164000 249.957993
521 0 1 -0.106000 42.046001 9.018000 253.335007
522 0 1 -0.106000 42.047001 7.552000 253.776001
523 0 1 -0.106000 43.465000 6.972000 253.740997
524 0 3 -0.159000 43.467999 5.507000 254.169998
525 0 4 0.053000 44.504002 5.112000 254.132004
526 0 4 0.053000 42.831001 4.906000 253.487000
527 0 4 0.053000 43.084999 5.410000 255.207993
528 0 4 0.053000 44.124001 7.550000 254.425003
529 0 4 0.053000 43.872002 7.044000 252.709000
530 0 4 0.053000 41.395000 6.965000 253.093002
531 0 4 0.053000 41.643002 7.479000 254.809006
532 0 4 0.053000 42.692001 9.613000 254.018005
533 0 4 0.053000 42.456001 9.090000 252.302002
534 0 4 0.053000 39.983002 8.991000 252.669998
535 0 4 0.053000 40.210999 9.530000 254.382004
536 0 4 0.053000 41.043999 11.107000 251.860001
537 0 4 0.053000 41.252998 11.660000 253.570007
538 0 4 0.053000 38.766998 11.565000 253.897003
539 0 4 0.053000 38.569000 10.995000 252.190994
540 0 4 0.053000 39.629002 13.106000 251.360992
541 0 4 0.053000 39.810001 13.685000 253.065994
542 0 4 0.053000 37.321999 13.574000 253.358994
543 0 4 0.053000 37.148998 12.989000 251.656998
544 0 4 0.053000 38.203999 15.103000 250.820999
545 0 4 0.053000 38.370998 15.689000 252.524994
546 0 4 0.053000 35.884998 15.562000 252.806000
547 0 4 0.053000 35.720001 14.987000 251.098007
548 0 4 0.053000 36.764000 17.118000 250.285004
549 0 4 0.053000 36.935001 17.680000 251.994995
550 0 4 0.053000 34.453999 17.538000 252.289001
551 0 4 0.053000 34.279999 16.997999 250.570999
552 0 4 0.053000 35.308998 19.152000 249.796005
553 0 4 0.053000 35.497002 19.676001 251.516998
554 0 4 0.053000 33.035999 19.507999 251.839005
555 0 4 0.053000 32.841999 19.007000 250.110992
556 0 4 0.053000 33.895000 21.174000 249.380005
557 0 4 0.053000 34.091000 21.660999 251.095001
558 0 4 0.053000 32.916000 23.709000 250.673996
559 0 4 0.053000 31.285999 23.702000 249.919006
560 0 4 0.053000 32.723999 23.236000 248.947006
561 0 4 0.053000 30.940001 20.051001 249.681000
562 0 4 0.053000 31.649000 21.069000 248.371994
563 0 4 0.053000 30.215000 21.634001 249.302994
564 0 4 0.053000 31.191999 20.698999 252.026993
565 0 4 0.053000 30.486000 22.299000 251.701004
566 0 4 0.053000 32.110001 22.187000 252.470001
567 0 5 -1.000000 30.438000 20.916000 251.145996
568 0 1 -0.106000 13.145000 20.684999 399.407013
569 0 1 -0.106000 12.731000 21.281000 398.058990
570 0 1 -0.106000 12.103000 20.211000 397.161987
571 0 1 -0.106000 11.714000 20.802999 395.803986
572 0 1 -0.106000 11.114000 19.728001 394.894989
573 0 1 -0.106000 10.734000 20.316999 393.535004
574 0 1 -0.106000 10.143000 19.240000 392.623993
575 0 1 -0.106000 9.748000 19.829000 391.268005
576 0 1 -0.106000 9.141000 18.749001 390.368011
577 0 1 -0.106000 8.712000 19.334999 389.020996
578 0 1 -0.106000 8.082000 18.253000 388.136993
579 0 1 0.301100 7.616000 18.850000 386.790009
580 0 2 -0.628400 6.970000 17.882999 385.850006
581 0 3 0.248100 5.748000 17.285000 386.441010
582 0 3 0.248100 7.907000 16.802999 385.454987
583 0 3 0.248100 6.578000 18.628000 384.630005
584 0 1 -0.106000 13.804000 21.747000 400.292999
585 0 1 -0.106000 14.240000 21.145000 401.631989
586 0 1 -0.106000 14.917000 22.201000 402.510986
587 0 3 -0.159000 15.362000 21.601999 403.842010
588 0 4 0.053000 15.851000 22.386000 404.458008
589 0 4 0.053000 16.089001 20.778999 403.670013
590 0 4 0.053000 14.486000 21.205000 404.398010
591 0 4 0.053000 14.208000 23.034000 402.709991
592 0 4 0.053000 15.808000 22.608999 401.987000
593 0 4 0.053000 14.955000 20.313999 401.442993
594 0 4 0.053000 13.349000 20.739000 402.160004
595 0 4 0.053000 13.083000 22.575001 400.475006
596 0 4 0.053000 14.696000 22.157000 399.769012
597 0 4 0.053000 13.869000 19.858000 399.231995
598 0 4 0.053000 12.249000 20.275000 399.921997
599 0 4 0.053000 13.630000 21.697001 397.553009
600 0 4 0.053000 11.999000 22.103001 398.223999
601 0 4 0.053000 11.199000 19.792999 397.657013
602 0 4 0.053000 12.838000 19.389999 397.003998
603 0 4 0.053000 12.619000 21.226999 395.316010
604 0 4 0.053000 10.972000 21.618000 395.955994
605 0 4 0.053000 10.207000 19.299999 395.378998
606 0 4 0.053000 11.858000 18.914000 394.747986
607 0 4 0.053000 11.640000 20.747999 393.053009
608 0 4 0.053000 9.986000 21.128000 393.682007
609 0 4 0.053000 9.241000 18.806000 393.110992
610 0 4 0.053000 10.892000 18.431999 392.471985
611 0 4 0.053000 10.644000 20.261999 390.773987
612 0 4 0.053000 8.999000 20.636999 391.425995
613 0 4 0.053000 8.253000 18.312000 390.875000
614 0 4 0.053000 9.891000 17.944000 390.200989
615 0 4 0.053000 9.596000 19.770000 388.503998
616 0 4 0.053000 7.967000 20.143999 389.196014
617 0 4 0.053000 7.217000 17.827999 388.687012
618 0 4 0.053000 8.837000 17.458000 387.971985