LAMMPS data file containing the original structures and the polarizable gold

19866 atoms
15875 bonds
24168 angles
34452 dihedrals
0 impropers

7 atom types
7 bond types
13 angle types
15 dihedral types

-48.235027 57.000000 xlo xhi
-3.000000 57.099998 ylo yhi
-3.000000 90.364571 zlo zhi

Masses

1 12.011150
2 14.006700
3 12.011150
4 1.007970
5 79.908997
6 195.960007
7 1.000000

Atoms

1 0 1 -0.106000 46.667000 36.265999 474.360992
2 0 1 -0.106000 46.469002 37.754002 474.658997
3 0 1 -0.106000 44.980000 38.088001 474.791992
4 0 1 -0.106000 44.783001 39.582001 475.062988
5 0 1 -0.106000 43.294998 39.923000 475.166992
6 0 1 -0.106000 43.097000 41.417999 475.429993
7 0 1 -0.106000 41.609001 41.758999 475.523987
8 0 1 -0.106000 41.407001 43.250000 475.799988
9 0 1 -0.106000 39.917000 43.581001 475.910004
10 0 1 -0.106000 39.706001 45.066002 476.220001
11 0 1 -0.106000 38.212002 45.382000 476.355011
12 0 1 0.301100 37.998001 46.872002 476.701996
13 0 2 -0.628400 36.573002 47.292999 476.872986
14 0 3 0.248100 35.916000 46.549000 477.975006
15 0 3 0.248100 35.799999 47.105999 475.621002
16 0 3 0.248100 36.563000 48.735001 477.214996
17 0 1 -0.106000 48.153000 35.936001 474.194000
18 0 1 -0.106000 48.349998 34.452000 473.872009
19 0 1 -0.106000 49.834999 34.125999 473.684998
20 0 3 -0.159000 50.033001 32.648998 473.352997
21 0 4 0.053000 51.115002 32.439999 473.220001
22 0 4 0.053000 49.501999 32.391998 472.411987
23 0 4 0.053000 49.645000 32.014000 474.177002
24 0 4 0.053000 50.390999 34.362999 474.617004
25 0 4 0.053000 50.250999 34.737999 472.855988
26 0 4 0.053000 47.800999 34.206001 472.936005
27 0 4 0.053000 47.937000 33.838001 474.700989
28 0 4 0.053000 48.695000 36.188000 475.132996
29 0 4 0.053000 48.571999 36.549000 473.364014
30 0 4 0.053000 46.130001 36.007999 473.420013
31 0 4 0.053000 46.243000 35.661999 475.192993
32 0 4 0.053000 46.902000 38.353001 473.828003
33 0 4 0.053000 46.993999 38.018002 475.602997
34 0 4 0.053000 44.539001 37.498001 475.625000
35 0 4 0.053000 44.459999 37.819000 473.846008
36 0 4 0.053000 45.233002 40.168999 474.233002
37 0 4 0.053000 45.292999 39.855000 476.014008
38 0 4 0.053000 42.839001 39.339001 475.998993
39 0 4 0.053000 42.786999 39.646999 474.217010
40 0 4 0.053000 43.555000 42.001999 474.600006
41 0 4 0.053000 43.599998 41.693001 476.382996
42 0 4 0.053000 41.151001 41.168999 476.348999
43 0 4 0.053000 41.105999 41.488998 474.569000
44 0 4 0.053000 41.860001 43.847000 474.977997
45 0 4 0.053000 41.912998 43.514999 476.755005
46 0 4 0.053000 39.470001 42.972000 476.726013
47 0 4 0.053000 39.410999 43.327000 474.953003
48 0 4 0.053000 40.146000 45.682999 475.406006
49 0 4 0.053000 40.220001 45.313999 477.174988
50 0 4 0.053000 37.799999 44.738998 477.160004
51 0 4 0.053000 37.716999 45.129002 475.394989
52 0 4 0.053000 38.473000 47.479000 475.894989
53 0 4 0.053000 38.561001 47.082001 477.640991
54 0 4 0.053000 37.119999 48.928001 478.158997
55 0 4 0.053000 35.523998 49.111000 477.355011
56 0 4 0.053000 37.035000 49.342999 476.408997
57 0 4 0.053000 35.696999 46.030998 475.356995
58 0 4 0.053000 36.285999 47.631001 474.769012
59 0 4 0.053000 34.766998 47.504002 475.726990
60 0 4 0.053000 35.804001 45.471001 477.735992
61 0 4 0.053000 34.889999 46.936001 478.161987
62 0 4 0.053000 36.495998 46.643002 478.920013
63 0 5 -1.000000 35.048000 46.007000 477.006989
64 0 1 -0.106000 30.469999 11.464000 186.612000
65 0 1 -0.106000 31.465000 11.514000 185.449997
66 0 1 -0.106000 32.238998 12.835000 185.453003
67 0 1 -0.106000 33.214001 12.895000 184.274002
68 0 1 -0.106000 33.966999 14.227000 184.259995
69 0 1 -0.106000 34.935001 14.290000 183.076004
70 0 1 -0.106000 35.680000 15.625000 183.057007
71 0 1 -0.106000 36.660000 15.687000 181.882996
72 0 1 -0.106000 37.414001 17.018999 181.878998
73 0 1 -0.106000 38.421001 17.076000 180.727997
74 0 1 -0.106000 39.189999 18.402000 180.748993
75 0 1 0.301100 40.230999 18.448000 179.608002
76 0 2 -0.628400 41.054001 19.695000 179.541000
77 0 3 0.248100 41.841999 19.893000 180.781006
78 0 3 0.248100 40.208000 20.889000 179.296997
79 0 3 0.248100 41.999001 19.555000 178.406998
80 0 1 -0.106000 29.671000 10.157000 186.591003
81 0 1 -0.106000 28.659000 10.118000 187.738998
82 0 1 -0.106000 27.846001 8.820000 187.707001
83 0 3 -0.159000 26.829000 8.782000 188.843994
84 0 4 0.053000 26.252001 7.835000 188.796005
85 0 4 0.053000 26.122000 9.635000 188.755997
86 0 4 0.053000 27.346001 8.837000 189.824997
87 0 4 0.053000 28.528000 7.947000 187.804001
88 0 4 0.053000 27.304001 8.742000 186.738998
89 0 4 0.053000 27.968000 10.984000 187.645996
90 0 4 0.053000 29.198999 10.192000 188.709000
91 0 4 0.053000 30.370001 9.296000 186.681000
92 0 4 0.053000 29.128000 10.077000 185.621994
93 0 4 0.053000 29.766001 12.321000 186.526001
94 0 4 0.053000 31.020000 11.548000 187.574997
95 0 4 0.053000 30.909000 11.421000 184.490005
96 0 4 0.053000 32.179001 10.665000 185.535004
97 0 4 0.053000 32.801998 12.934000 186.406998
98 0 4 0.053000 31.518000 13.680000 185.371994
99 0 4 0.053000 32.647999 12.787000 183.324005
100 0 4 0.053000 33.943001 12.057000 184.356003
101 0 4 0.053000 34.536999 14.339000 185.210007
102 0 4 0.053000 33.236000 15.061000 184.181000
103 0 4 0.053000 34.365002 14.173000 182.126999
104 0 4 0.053000 35.668999 13.458000 183.158005
105 0 4 0.053000 36.243000 15.743000 184.009003
106 0 4 0.053000 34.946999 16.457001 182.968994
107 0 4 0.053000 36.104000 15.573000 180.927002
108 0 4 0.053000 37.389999 14.852000 181.973999
109 0 4 0.053000 37.957001 17.129999 182.843994
110 0 4 0.053000 36.686001 17.854000 181.778000
111 0 4 0.053000 37.886002 16.971001 179.759003
112 0 4 0.053000 39.140999 16.233999 180.832001
113 0 4 0.053000 39.695999 18.485001 181.733002
114 0 4 0.053000 38.457001 19.228001 180.643005
115 0 4 0.053000 39.685001 18.308001 178.645996
116 0 4 0.053000 40.903999 17.568001 179.731995
117 0 4 0.053000 42.669998 18.677999 178.548996
118 0 4 0.053000 42.643002 20.457001 178.302994
119 0 4 0.053000 41.456001 19.417000 177.444000
120 0 4 0.053000 39.535000 21.098000 180.154999
121 0 4 0.053000 39.583000 20.756001 178.384995
122 0 4 0.053000 40.833000 21.799000 179.156998
123 0 4 0.053000 41.189999 20.101999 181.654999
124 0 4 0.053000 42.525002 20.767000 180.684998
125 0 4 0.053000 42.460999 18.996000 181.007996
126 0 5 -1.000000 41.098000 21.072001 180.990005
127 0 1 -0.106000 34.521000 16.273001 56.659000
128 0 1 -0.106000 33.598000 15.664000 57.716999
129 0 1 -0.106000 34.263000 15.684000 59.096001
130 0 1 -0.106000 33.348999 15.050000 60.147999
131 0 1 -0.106000 34.023998 15.042000 61.521000
132 0 1 -0.106000 33.113998 14.400000 62.570000
133 0 1 -0.106000 33.793999 14.385000 63.939999
134 0 1 -0.106000 32.881001 13.756000 64.995003
135 0 1 -0.106000 33.561001 13.759000 66.365997
136 0 1 -0.106000 32.641998 13.163000 67.435997
137 0 1 -0.106000 33.320999 13.195000 68.809998
138 0 1 0.301100 32.382000 12.625000 69.896004
139 0 2 -0.628400 32.937000 12.621000 71.286003
140 0 3 0.248100 33.259998 13.994000 71.745003
141 0 3 0.248100 34.147999 11.770000 71.380997
142 0 3 0.248100 31.902000 12.061000 72.186996
143 0 1 -0.106000 33.870998 16.223000 55.272999
144 0 1 -0.106000 34.804001 16.811001 54.210999
145 0 1 -0.106000 34.162998 16.743000 52.821999
146 0 3 -0.159000 35.096001 17.318001 51.758999
147 0 4 0.053000 34.609001 17.254999 50.764000
148 0 4 0.053000 36.044998 16.743000 51.729000
149 0 4 0.053000 35.320000 18.382999 51.980000
150 0 4 0.053000 33.213001 17.320999 52.818001
151 0 4 0.053000 33.937000 15.685000 52.564999
152 0 4 0.053000 35.756001 16.233999 54.202000
153 0 4 0.053000 35.028999 17.870001 54.464001
154 0 4 0.053000 32.918999 16.799999 55.291000
155 0 4 0.053000 33.643002 15.165000 55.014999
156 0 4 0.053000 35.473999 15.699000 56.632999
157 0 4 0.053000 34.745998 17.329000 56.926998
158 0 4 0.053000 33.369999 14.611000 57.438999
159 0 4 0.053000 32.646000 16.239000 57.755001
160 0 4 0.053000 34.488998 16.733999 59.384998
161 0 4 0.053000 35.216000 15.111000 59.049000
162 0 4 0.053000 33.118000 14.004000 59.849998
163 0 4 0.053000 32.397999 15.626000 60.205002
164 0 4 0.053000 34.257000 16.087999 61.823002
165 0 4 0.053000 34.974998 14.469000 61.459000
166 0 4 0.053000 32.879002 13.356000 62.264999
167 0 4 0.053000 32.165001 14.977000 62.634998
168 0 4 0.053000 34.035000 15.429000 64.239998
169 0 4 0.053000 34.740002 13.803000 63.876999
170 0 4 0.053000 32.639000 12.711000 64.704002
171 0 4 0.053000 31.936001 14.341000 65.053001
172 0 4 0.053000 33.812000 14.807000 66.643997
173 0 4 0.053000 34.501999 13.168000 66.313004
174 0 4 0.053000 32.390999 12.113000 67.167999
175 0 4 0.053000 31.702000 13.756000 67.478996
176 0 4 0.053000 33.575001 14.251000 69.038002
177 0 4 0.053000 34.255001 12.599000 68.748001
178 0 4 0.053000 32.112999 11.585000 69.598999
179 0 4 0.053000 31.443001 13.225000 69.875999
180 0 4 0.053000 30.974001 12.674000 72.162003
181 0 4 0.053000 32.257000 12.030000 73.240997
182 0 4 0.053000 31.632999 11.020000 71.891998
183 0 4 0.053000 34.993000 12.189000 70.792999
184 0 4 0.053000 33.942001 10.740000 71.015999
185 0 4 0.053000 34.502998 11.699000 72.433998
186 0 4 0.053000 34.099998 14.435000 71.169998
187 0 4 0.053000 33.577999 13.993000 72.811996
188 0 4 0.053000 32.376999 14.664000 71.650002
189 0 5 -1.000000 34.606998 13.587000 71.813004
190 0 1 -0.106000 32.172001 10.893000 528.793030
191 0 1 -0.106000 33.495998 11.655000 528.713013
192 0 1 -0.106000 34.674999 10.731000 529.030029
193 0 1 -0.106000 35.998001 11.502000 528.974976
194 0 1 -0.106000 37.174000 10.586000 529.320007
195 0 1 -0.106000 38.493999 11.358000 529.275024
196 0 1 -0.106000 39.667999 10.444000 529.630005
197 0 1 -0.106000 40.992001 11.209000 529.570984
198 0 1 -0.106000 42.164001 10.285000 529.909973
199 0 1 -0.106000 43.497002 11.033000 529.822021
200 0 1 -0.106000 44.666000 10.093000 530.137024
201 0 1 0.301100 46.014000 10.837000 530.013977
202 0 2 -0.628400 47.230999 10.010000 530.286011
203 0 3 0.248100 47.337002 8.875000 529.338989
204 0 3 0.248100 47.234001 9.495000 531.677002
205 0 3 0.248100 48.418999 10.878000 530.107971
206 0 1 -0.106000 30.988001 11.824000 528.510010
207 0 1 -0.106000 29.662001 11.067000 528.614014
208 0 1 -0.106000 28.476999 12.002000 528.349976
209 0 3 -0.159000 27.152000 11.252000 528.463989
210 0 4 0.053000 26.312000 11.952000 528.270996
211 0 4 0.053000 27.037001 10.828000 529.484009
212 0 4 0.053000 27.110001 10.430000 527.718994
213 0 4 0.053000 28.559999 12.434000 527.328979
214 0 4 0.053000 28.483000 12.831000 529.090027
215 0 4 0.053000 29.566000 10.636000 529.635010
216 0 4 0.053000 29.652000 10.238000 527.872009
217 0 4 0.053000 31.093000 12.253000 527.487976
218 0 4 0.053000 30.993999 12.656000 529.249023
219 0 4 0.053000 32.058998 10.464000 529.814026
220 0 4 0.053000 32.176998 10.062000 528.054016
221 0 4 0.053000 33.481998 12.490000 529.448975
222 0 4 0.053000 33.620998 12.079000 527.692017
223 0 4 0.053000 34.702000 9.896000 528.294983
224 0 4 0.053000 34.542999 10.308000 530.049988
225 0 4 0.053000 35.964001 12.340000 529.703979
226 0 4 0.053000 36.139000 11.919000 527.953003
227 0 4 0.053000 37.213001 9.744000 528.591980
228 0 4 0.053000 37.027000 10.168000 530.341003
229 0 4 0.053000 38.453999 12.201000 530.000977
230 0 4 0.053000 38.643002 11.771000 528.252991
231 0 4 0.053000 39.702999 9.598000 528.908020
232 0 4 0.053000 39.522999 10.035000 530.653992
233 0 4 0.053000 40.966000 12.055000 530.293030
234 0 4 0.053000 41.132000 11.617000 528.546021
235 0 4 0.053000 42.174999 9.435000 529.192993
236 0 4 0.053000 42.032001 9.883000 530.940002
237 0 4 0.053000 43.497002 11.881000 530.541016
238 0 4 0.053000 43.618999 11.437000 528.791992
239 0 4 0.053000 44.626999 9.250000 529.416016
240 0 4 0.053000 44.527000 9.701000 531.164978
241 0 4 0.053000 45.987000 11.703000 530.716980
242 0 4 0.053000 46.074001 11.255000 528.982971
243 0 4 0.053000 48.471001 11.280000 529.070984
244 0 4 0.053000 49.362000 10.317000 530.297974
245 0 4 0.053000 48.395000 11.743000 530.809021
246 0 4 0.053000 46.412998 8.767000 531.848999
247 0 4 0.053000 47.126999 10.325000 532.411011
248 0 4 0.053000 48.182999 8.958000 531.901001
249 0 4 0.053000 46.525002 8.133000 529.489014
250 0 4 0.053000 48.292999 8.323000 529.481995
251 0 4 0.053000 47.300999 9.230000 528.283997
252 0 5 -1.000000 47.200001 8.017000 530.448975
253 0 1 -0.106000 16.733999 17.409000 235.492004
254 0 1 -0.106000 17.834999 16.347000 235.548004
255 0 1 -0.106000 19.006001 16.731001 234.639999
256 0 1 -0.106000 20.094999 15.654000 234.675003
257 0 1 -0.106000 21.253000 16.021999 233.744995
258 0 1 -0.106000 22.336000 14.942000 233.774002
259 0 1 -0.106000 23.489000 15.306000 232.837006
260 0 1 -0.106000 24.580999 14.235000 232.873993
261 0 1 -0.106000 25.739000 14.614000 231.947006
262 0 1 -0.106000 26.851999 13.565000 232.003006
263 0 1 -0.106000 28.018000 13.966000 231.091995
264 0 1 0.301100 29.158001 12.926000 231.173004
265 0 2 -0.628400 30.358999 13.224000 230.332993
266 0 3 0.248100 30.990000 14.508000 230.723999
267 0 3 0.248100 30.014999 13.262000 228.891006
268 0 3 0.248100 31.344999 12.138000 230.548004
269 0 1 -0.106000 15.547000 17.011000 236.375000
270 0 1 -0.106000 14.435000 18.061001 236.300003
271 0 1 -0.106000 13.240000 17.653999 237.167007
272 0 3 -0.159000 12.125000 18.694000 237.085999
273 0 4 0.053000 11.272000 18.374001 237.718994
274 0 4 0.053000 11.772000 18.799000 236.037994
275 0 4 0.053000 12.491000 19.677999 237.449005
276 0 4 0.053000 13.561000 17.551001 238.225998
277 0 4 0.053000 12.842000 16.676001 236.819000
278 0 4 0.053000 14.102000 18.166000 235.244003
279 0 4 0.053000 14.830000 19.040001 236.651001
280 0 4 0.053000 15.889000 16.905001 237.429001
281 0 4 0.053000 15.148000 16.031000 236.028000
282 0 4 0.053000 16.385000 17.517000 234.440994
283 0 4 0.053000 17.142000 18.385000 235.837006
284 0 4 0.053000 17.417999 15.372000 235.210999
285 0 4 0.053000 18.197001 16.240000 236.593994
286 0 4 0.053000 19.434000 17.702000 234.973007
287 0 4 0.053000 18.636999 16.840000 233.595001
288 0 4 0.053000 19.662001 14.683000 234.350006
289 0 4 0.053000 20.474001 15.548000 235.716003
290 0 4 0.053000 21.691000 16.993999 234.067001
291 0 4 0.053000 20.870001 16.129999 232.707001
292 0 4 0.053000 21.896999 13.970000 233.455002
293 0 4 0.053000 22.723000 14.837000 234.811996
294 0 4 0.053000 23.922001 16.281000 233.153000
295 0 4 0.053000 23.104000 15.405000 231.798004
296 0 4 0.053000 24.157000 13.258000 232.557007
297 0 4 0.053000 24.962000 14.139000 233.914993
298 0 4 0.053000 26.150000 15.598000 232.264008
299 0 4 0.053000 25.363001 14.701000 230.903000
300 0 4 0.053000 26.452000 12.578000 231.682007
301 0 4 0.053000 27.219000 13.479000 233.050003
302 0 4 0.053000 28.382000 14.960000 231.425003
303 0 4 0.053000 27.635000 14.046000 230.054001
304 0 4 0.053000 28.733999 11.936000 230.880997
305 0 4 0.053000 29.465000 12.847000 232.242004
306 0 4 0.053000 31.649000 12.077000 231.617004
307 0 4 0.053000 32.266998 12.303000 229.945999
308 0 4 0.053000 30.924999 11.149000 230.255005
309 0 4 0.053000 29.344000 14.113000 228.649994
310 0 4 0.053000 29.514000 12.319000 228.574997
311 0 4 0.053000 30.927000 13.393000 228.266998
312 0 4 0.053000 30.336000 15.375000 230.494995
313 0 4 0.053000 31.937000 14.675000 230.164001
314 0 4 0.053000 31.226000 14.522000 231.811005
315 0 5 -1.000000 30.674000 14.984000 229.434998
316 0 1 -0.106000 24.589001 49.105000 564.405029
317 0 1 -0.106000 25.653999 50.195999 564.275024
318 0 1 -0.106000 26.646999 49.856998 563.158997
319 0 1 -0.106000 27.728001 50.936001 563.049011
320 0 1 -0.106000 28.737000 50.584000 561.953979
321 0 1 -0.106000 29.822001 51.658001 561.849976
322 0 1 -0.106000 30.834999 51.299999 560.762024
323 0 1 -0.106000 31.914000 52.379002 560.645020
324 0 1 -0.106000 32.915001 52.022999 559.543030
325 0 1 -0.106000 33.980000 53.112999 559.395020
326 0 1 -0.106000 34.960999 52.759998 558.271973
327 0 1 0.301100 36.015999 53.875000 558.098022
328 0 2 -0.628400 37.021999 53.644001 557.015015
329 0 3 0.248100 36.370998 53.528000 555.687012
330 0 3 0.248100 37.830002 52.429001 557.278015
331 0 3 0.248100 37.933998 54.812000 556.984009
332 0 1 -0.106000 23.615000 49.425999 565.543030
333 0 1 -0.106000 22.563999 48.323002 565.687988
334 0 1 -0.106000 21.601000 48.632999 566.838989
335 0 3 -0.159000 20.558001 47.529999 566.992981
336 0 4 0.053000 19.877001 47.778000 567.833984
337 0 4 0.053000 21.054001 46.560001 567.210022
338 0 4 0.053000 19.959000 47.433998 566.062988
339 0 4 0.053000 21.080999 49.596001 566.643005
340 0 4 0.053000 22.171000 48.722000 567.789001
341 0 4 0.053000 23.075001 47.355999 565.890015
342 0 4 0.053000 21.990000 48.234001 564.739014
343 0 4 0.053000 23.110001 50.396000 565.333984
344 0 4 0.053000 24.184000 49.516998 566.494995
345 0 4 0.053000 25.087000 48.132999 564.617004
346 0 4 0.053000 24.028000 49.019001 563.447998
347 0 4 0.053000 26.205999 50.283001 565.237000
348 0 4 0.053000 25.165001 51.169998 564.052979
349 0 4 0.053000 26.105000 49.773998 562.192017
350 0 4 0.053000 27.129999 48.880001 563.385010
351 0 4 0.053000 28.261000 51.021999 564.020996
352 0 4 0.053000 27.250000 51.914001 562.812988
353 0 4 0.053000 28.208000 50.498001 560.978027
354 0 4 0.053000 29.209999 49.605999 562.190979
355 0 4 0.053000 30.349001 51.745998 562.827026
356 0 4 0.053000 29.349001 52.634998 561.607971
357 0 4 0.053000 30.306000 51.205002 559.786987
358 0 4 0.053000 31.313000 50.325001 561.005981
359 0 4 0.053000 32.450001 52.477001 561.614014
360 0 4 0.053000 31.431999 53.351002 560.401001
361 0 4 0.053000 32.369999 51.912998 558.580017
362 0 4 0.053000 33.405998 51.055000 559.789001
363 0 4 0.053000 34.534000 53.224998 560.353027
364 0 4 0.053000 33.480999 54.077999 559.156006
365 0 4 0.053000 34.376999 52.637001 557.336975
366 0 4 0.053000 35.449001 51.797001 558.528015
367 0 4 0.053000 36.541000 53.999001 559.075012
368 0 4 0.053000 35.470001 54.826000 557.898010
369 0 4 0.053000 37.375999 55.751999 556.775024
370 0 4 0.053000 38.709999 54.699001 556.193970
371 0 4 0.053000 38.460999 54.937000 557.958008
372 0 4 0.053000 37.214001 51.506001 557.226013
373 0 4 0.053000 38.308998 52.476002 558.281006
374 0 4 0.053000 38.634998 52.313000 556.518005
375 0 4 0.053000 35.748001 52.612999 555.612000
376 0 4 0.053000 37.130001 53.456001 554.875977
377 0 4 0.053000 35.728001 54.411999 555.479004
378 0 5 -1.000000 36.853001 52.203999 555.637024
379 0 1 -0.106000 36.069000 48.360001 101.938004
380 0 1 -0.106000 35.858002 48.884998 103.360001
381 0 1 -0.106000 34.452999 49.473999 103.517998
382 0 1 -0.106000 34.252998 50.023998 104.932999
383 0 1 -0.106000 32.860001 50.639000 105.084000
384 0 1 -0.106000 32.662998 51.196999 106.495003
385 0 1 -0.106000 31.274000 51.820000 106.641998
386 0 1 -0.106000 31.066999 52.366001 108.056999
387 0 1 -0.106000 29.669001 52.972000 108.202003
388 0 1 -0.106000 29.441000 53.491001 109.624001
389 0 1 -0.106000 28.030001 54.071999 109.766998
390 0 1 0.301100 27.785000 54.564999 111.209999
391 0 2 -0.628400 26.429001 55.140999 111.470001
392 0 3 0.248100 25.360001 54.143002 111.223999
393 0 3 0.248100 26.184000 56.344002 110.638000
394 0 3 0.248100 26.371000 55.542000 112.896004
395 0 1 -0.106000 37.486000 47.800999 101.767998
396 0 1 -0.106000 37.705002 47.297001 100.338997
397 0 1 -0.106000 39.127998 46.757000 100.163002
398 0 3 -0.159000 39.353001 46.264000 98.736000
399 0 4 0.053000 40.389999 45.881001 98.635002
400 0 4 0.053000 39.208000 47.096001 98.014000
401 0 4 0.053000 38.644001 45.443001 98.496002
402 0 4 0.053000 39.298000 45.914001 100.866997
403 0 4 0.053000 39.862999 47.560001 100.384003
404 0 4 0.053000 37.542999 48.137001 99.626999
405 0 4 0.053000 36.972000 46.491001 100.115997
406 0 4 0.053000 37.640999 46.964001 102.486000
407 0 4 0.053000 38.223999 48.605000 101.989998
408 0 4 0.053000 35.918999 49.193001 101.214996
409 0 4 0.053000 35.326000 47.561001 101.723999
410 0 4 0.053000 36.610001 49.678001 103.570999
411 0 4 0.053000 35.997002 48.056000 104.087997
412 0 4 0.053000 33.694000 48.687000 103.315002
413 0 4 0.053000 34.319000 50.300999 102.785004
414 0 4 0.053000 35.018002 50.804001 105.136002
415 0 4 0.053000 34.375999 49.199001 105.669998
416 0 4 0.053000 32.089001 49.861000 104.883003
417 0 4 0.053000 32.738998 51.460999 104.344002
418 0 4 0.053000 33.436001 51.972000 106.696999
419 0 4 0.053000 32.778999 50.374001 107.235001
420 0 4 0.053000 30.502001 51.044998 106.433998
421 0 4 0.053000 31.159000 52.646999 105.906998
422 0 4 0.053000 31.833000 53.143002 108.272003
423 0 4 0.053000 31.184000 51.535000 108.788002
424 0 4 0.053000 28.910000 52.192001 107.973000
425 0 4 0.053000 29.552999 53.810001 107.477997
426 0 4 0.053000 30.193001 54.277000 109.860001
427 0 4 0.053000 29.565001 52.650002 110.342003
428 0 4 0.053000 27.306000 53.271999 109.507004
429 0 4 0.053000 27.924999 54.908001 109.044998
430 0 4 0.053000 28.565001 55.327000 111.444000
431 0 4 0.053000 27.957001 53.702000 111.893997
432 0 4 0.053000 26.535999 54.667999 113.566002
433 0 4 0.053000 25.381001 55.980999 113.153999
434 0 4 0.053000 27.149000 56.304001 113.132004
435 0 4 0.053000 26.128000 56.091999 109.556999
436 0 4 0.053000 26.987000 57.099998 110.781998
437 0 4 0.053000 25.212999 56.819000 110.901001
438 0 4 0.053000 25.285999 53.874001 110.150002
439 0 4 0.053000 24.364000 54.546001 111.514000
440 0 4 0.053000 25.539000 53.214001 111.809998
441 0 5 -1.000000 24.896999 54.986000 110.194000
442 0 1 -0.106000 25.167999 43.923000 395.087006
443 0 1 -0.106000 23.709000 43.480000 395.221985
444 0 1 -0.106000 23.589001 41.959000 395.102997
445 0 1 -0.106000 22.125999 41.520000 395.210999
446 0 1 -0.106000 22.002001 40.001999 395.062012
447 0 1 -0.106000 20.539000 39.564999 395.161987
448 0 1 -0.106000 20.415001 38.049000 395.002991
449 0 1 -0.106000 18.955000 37.605999 395.115997
450 0 1 -0.106000 18.840000 36.085999 394.973999
451 0 1 -0.106000 17.386000 35.629002 395.118988
452 0 1 -0.106000 17.285000 34.104000 395.002014
453 0 1 0.301100 15.823000 33.638000 395.183014
454 0 2 -0.628400 15.606000 32.160000 395.101990
455 0 3 0.248100 16.365000 31.443001 396.154999
456 0 3 0.248100 15.986000 31.629999 393.769989
457 0 3 0.248100 14.162000 31.900999 395.312988
458 0 1 -0.106000 25.285999 45.448002 395.171997
459 0 1 -0.106000 26.742001 45.891998 395.013000
460 0 1 -0.106000 26.858999 47.417999 395.079010
461 0 3 -0.159000 28.308001 47.865002 394.908997
462 0 4 0.053000 28.364000 48.972000 394.958008
463 0 4 0.053000 28.701000 47.530998 393.924988
464 0 4 0.053000 28.938999 47.439999 395.718994
465 0 4 0.053000 26.482000 47.780998 396.058990
466 0 4 0.053000 26.247000 47.875000 394.269989
467 0 4 0.053000 27.127001 45.537998 394.031006
468 0 4 0.053000 27.356001 45.438999 395.822998
469 0 4 0.053000 24.896999 45.792999 396.157013
470 0 4 0.053000 24.673000 45.907001 394.364014
471 0 4 0.053000 25.562000 43.583000 394.102997
472 0 4 0.053000 25.773001 43.457001 395.895996
473 0 4 0.053000 23.108000 43.956001 394.415985
474 0 4 0.053000 23.311001 43.807999 396.208008
475 0 4 0.053000 24.183001 41.473999 395.908997
476 0 4 0.053000 23.993999 41.637001 394.117004
477 0 4 0.053000 21.535000 42.013000 394.408997
478 0 4 0.053000 21.721001 41.830002 396.200012
479 0 4 0.053000 22.591999 39.502998 395.864014
480 0 4 0.053000 22.410999 39.695000 394.075012
481 0 4 0.053000 19.948999 40.067001 394.362000
482 0 4 0.053000 20.132000 39.868000 396.151001
483 0 4 0.053000 21.011000 37.549000 395.799011
484 0 4 0.053000 20.816999 37.745998 394.010986
485 0 4 0.053000 18.353001 38.098999 394.321991
486 0 4 0.053000 18.556999 37.911999 396.109009
487 0 4 0.053000 19.455000 35.601002 395.764008
488 0 4 0.053000 19.228001 35.778000 393.977997
489 0 4 0.053000 16.764999 36.105999 394.329010
490 0 4 0.053000 17.003000 35.945999 396.114990
491 0 4 0.053000 17.929001 33.660000 395.789001
492 0 4 0.053000 17.670000 33.807999 394.005005
493 0 4 0.053000 15.207000 34.148998 394.404999
494 0 4 0.053000 15.472000 34.009998 396.173004
495 0 4 0.053000 13.828000 32.269001 396.308990
496 0 4 0.053000 13.935000 30.812000 395.263000
497 0 4 0.053000 13.545000 32.408001 394.536011
498 0 4 0.053000 17.079000 31.716000 393.588989
499 0 4 0.053000 15.451000 32.169998 392.958008
500 0 4 0.053000 15.738000 30.548000 393.687012
501 0 4 0.053000 17.461000 31.517000 395.996002
502 0 4 0.053000 16.122999 30.357000 396.152008
503 0 4 0.053000 16.127001 31.846001 397.164001
504 0 5 -1.000000 17.091999 30.820999 395.118988
505 0 3 -0.159000 40.346001 43.112000 459.105988
506 0 1 -0.106000 41.372002 43.990002 459.826996
507 0 1 -0.106000 42.058998 43.210999 460.950989
508 0 1 -0.106000 43.064999 44.098000 461.688995
509 0 1 -0.106000 43.731998 43.328999 462.832001
510 0 1 -0.106000 44.730999 44.219002 463.574005
511 0 1 -0.106000 45.389000 43.452000 464.721985
512 0 1 -0.106000 46.400002 44.334000 465.459015
513 0 1 -0.106000 47.067001 43.556000 466.595001
514 0 1 -0.106000 48.105000 44.419998 467.316986
515 0 1 -0.106000 48.785999 43.623001 468.436005
516 0 1 0.301100 49.858002 44.481998 469.143005
517 0 2 -0.628400 50.601002 43.799999 470.247009
518 0 3 0.248100 51.334999 42.610001 469.752014
519 0 3 0.248100 49.688999 43.396000 471.343994
520 0 1 0.301100 51.589001 44.761002 470.792999
521 0 1 -0.106000 39.632999 43.900002 458.002014
522 0 1 -0.106000 38.590000 43.028999 457.296997
523 0 1 -0.106000 37.862000 43.823002 456.207001
524 0 1 -0.106000 36.813999 42.959999 455.509003
525 0 1 -0.106000 36.300999 43.558998 454.726990
526 0 1 -0.106000 36.057999 42.606998 456.240997
527 0 1 -0.106000 37.296001 42.082001 455.028015
528 0 1 -0.106000 38.595001 44.181000 455.450989
529 0 1 -0.106000 37.356998 44.703999 456.658997
530 0 1 -0.106000 37.848000 42.671001 458.044006
531 0 3 -0.159000 39.092999 42.148998 456.841003
532 0 4 0.053000 40.382000 44.257999 457.260986
533 0 4 0.053000 39.126999 44.783001 458.454010
534 0 4 0.053000 39.591000 42.754002 459.841003
535 0 4 0.053000 40.859001 42.230999 458.661011
536 0 4 0.053000 40.854000 44.874001 460.261993
537 0 4 0.053000 42.134998 44.344002 459.100006
538 0 4 0.053000 42.584999 42.327999 460.524994
539 0 4 0.053000 41.289001 42.855999 461.673004
540 0 4 0.053000 42.537998 44.983002 462.105988
541 0 4 0.053000 43.842999 44.446999 460.972992
542 0 4 0.053000 44.263000 42.442001 462.419006
543 0 4 0.053000 42.952000 42.979000 463.542999
544 0 4 0.053000 44.200001 45.108002 463.984009
545 0 4 0.053000 45.514000 44.563999 462.864014
546 0 4 0.053000 45.914001 42.560001 464.312012
547 0 4 0.053000 44.608002 43.111000 465.437012
548 0 4 0.053000 45.882999 45.226002 465.873993
549 0 4 0.053000 47.179001 44.673000 464.739990
550 0 4 0.053000 47.570999 42.659000 466.173004
551 0 4 0.053000 46.291000 43.223000 467.320007
552 0 4 0.053000 47.608002 45.317001 467.747986
553 0 4 0.053000 48.873001 44.752998 466.584991
554 0 4 0.053000 49.255001 42.728001 467.976990
555 0 4 0.053000 48.006001 43.299999 469.154999
556 0 4 0.053000 49.352001 45.393002 469.540985
557 0 4 0.053000 50.581001 44.823002 468.365997
558 0 4 0.053000 52.308998 45.085999 470.009003
559 0 4 0.053000 52.176998 44.310001 471.623993
560 0 4 0.053000 51.085999 45.672001 471.192993
561 0 4 0.053000 48.977001 42.608002 471.019012
562 0 4 0.053000 49.103001 44.265999 471.717010
563 0 4 0.053000 50.257999 42.972000 472.200989
564 0 4 0.053000 50.645000 41.807999 469.419006
565 0 4 0.053000 51.964001 42.166000 470.556000
566 0 4 0.053000 52.002998 42.877998 468.902008
567 0 4 0.053000 50.512001 41.831001 470.589996
568 0 4 0.053000 49.346001 21.712000 427.605988
569 0 4 0.053000 48.821999 23.134001 427.821014
570 0 4 0.053000 49.876999 24.003000 428.510986
571 0 4 0.053000 49.341999 25.417999 428.748993
572 0 4 0.053000 50.384998 26.278999 429.464996
573 0 4 0.053000 49.846001 27.690001 429.712006
574 0 4 0.053000 50.886002 28.547001 430.436005
575 0 4 0.053000 50.356998 29.962999 430.671997
576 0 4 0.053000 51.408001 30.820999 431.381012
577 0 4 0.053000 50.900002 32.249001 431.592010
578 0 4 0.053000 51.969002 33.106998 432.278015
579 0 4 0.053000 51.472000 34.557999 432.459991
580 0 4 0.053000 52.443001 35.492001 433.109985
581 0 4 0.053000 53.689999 35.616001 432.316010
582 0 4 0.053000 52.775002 35.055000 434.487000
583 0 4 0.053000 51.806999 36.828999 433.186005
584 0 4 0.053000 48.279999 20.832001 426.946014
585 0 4 0.053000 48.794998 19.403000 426.752991
586 0 4 0.053000 47.722000 18.517000 426.112000
587 0 4 0.053000 48.229000 17.089001 425.928009
588 0 5 -1.000000 47.433998 16.469000 425.464996
589 0 1 -0.106000 48.499001 16.648001 426.911011
590 0 1 -0.106000 49.120998 17.080000 425.265015
591 0 1 -0.106000 47.438999 18.930000 425.118988
592 0 1 -0.106000 46.819000 18.495001 426.759003
593 0 1 -0.106000 49.075001 18.979000 427.743011
594 0 1 -0.106000 49.696999 19.422001 426.102997
595 0 1 -0.106000 48.002998 21.264000 425.959015
596 0 1 -0.106000 47.374001 20.809000 427.592987
597 0 1 -0.106000 49.620998 21.271999 428.591003
598 0 1 -0.106000 50.251999 21.743999 426.962006
599 0 1 -0.106000 47.910999 23.094000 428.459015
600 0 1 0.301100 48.554001 23.584000 426.839996
601 0 2 -0.628400 50.790001 24.054001 427.877014
602 0 3 0.248100 50.144001 23.545000 429.489014
603 0 3 0.248100 48.424999 25.362000 429.375000
604 0 3 0.248100 49.083000 25.884001 427.772003
605 0 1 -0.106000 51.305000 26.339001 428.842010
606 0 1 -0.106000 50.643002 25.809000 430.440002
607 0 1 -0.106000 48.924000 27.629999 430.332001
608 0 3 -0.159000 49.592999 28.162001 428.737000
609 0 4 0.053000 51.810001 28.601000 429.817993
610 0 4 0.053000 51.136002 28.079000 431.414001
611 0 4 0.053000 49.435001 29.919001 431.291992
612 0 4 0.053000 50.106998 30.427000 429.691010
613 0 4 0.053000 52.330002 30.850000 430.760986
614 0 4 0.053000 51.652000 30.365000 432.365997
615 0 4 0.053000 49.980000 32.230000 432.216003
616 0 4 0.053000 50.652000 32.695999 430.602997
617 0 4 0.053000 52.877998 33.090000 431.640991