LAMMPS data file containing the original structures and the polarizable gold

20475 atoms
16484 bonds
25386 angles
36279 dihedrals
0 impropers

7 atom types
7 bond types
13 angle types
15 dihedral types

-47.372562 57.099998 xlo xhi
-3.000000 57.069000 ylo yhi
-3.000000 96.387703 zlo zhi

Masses

1 12.011150
2 14.006700
3 12.011150
4 1.007970
5 79.908997
6 195.960007
7 1.000000

Atoms

1 0 1 -0.106000 55.922001 31.811001 471.639008
2 0 1 -0.106000 55.876999 31.514000 470.138000
3 0 1 -0.106000 55.764000 32.811001 469.330994
4 0 1 -0.106000 55.691002 32.511002 467.830994
5 0 1 -0.106000 55.549999 33.803001 467.024994
6 0 1 -0.106000 55.467999 33.502998 465.527008
7 0 1 -0.106000 55.316002 34.794998 464.722992
8 0 1 -0.106000 55.248001 34.500000 463.222992
9 0 1 -0.106000 55.113998 35.798000 462.424011
10 0 1 -0.106000 55.078999 35.514999 460.920013
11 0 1 -0.106000 54.971001 36.823002 460.127014
12 0 1 0.301100 54.971001 36.542000 458.608002
13 0 2 -0.628400 54.883999 37.751999 457.731995
14 0 3 0.248100 56.035000 38.661999 457.949005
15 0 3 0.248100 53.618999 38.492001 457.957001
16 0 3 0.248100 54.912998 37.294998 456.321991
17 0 1 -0.106000 56.000999 30.513000 472.450012
18 0 1 -0.106000 56.021999 30.809000 473.951996
19 0 1 -0.106000 56.080002 29.511999 474.764008
20 0 3 -0.159000 56.091000 29.802999 476.261993
21 0 4 0.053000 56.131001 28.847000 476.825989
22 0 4 0.053000 55.169998 30.351000 476.553009
23 0 4 0.053000 56.980000 30.413000 476.528992
24 0 4 0.053000 57.000000 28.945000 474.500000
25 0 4 0.053000 55.195000 28.882000 474.528015
26 0 4 0.053000 55.102001 31.371000 474.226990
27 0 4 0.053000 56.909000 31.436001 474.191010
28 0 4 0.053000 56.922001 29.957001 472.166992
29 0 4 0.053000 55.115002 29.882000 472.213989
30 0 4 0.053000 55.001999 32.365002 471.928986
31 0 4 0.053000 56.807999 32.445000 471.864990
32 0 4 0.053000 54.993999 30.872999 469.920013
33 0 4 0.053000 56.799000 30.969000 469.838013
34 0 4 0.053000 56.646000 33.456001 469.537994
35 0 4 0.053000 54.841999 33.353001 469.639008
36 0 4 0.053000 54.813999 31.858000 467.630005
37 0 4 0.053000 56.616001 31.976999 467.516998
38 0 4 0.053000 56.426998 34.459999 467.222992
39 0 4 0.053000 54.625999 34.335999 467.343994
40 0 4 0.053000 54.591999 32.842999 465.329987
41 0 4 0.053000 56.393002 32.974998 465.208008
42 0 4 0.053000 56.188000 35.456001 464.925995
43 0 4 0.053000 54.388000 35.320999 465.037994
44 0 4 0.053000 54.376999 33.841999 463.011993
45 0 4 0.053000 56.178001 33.973000 462.912994
46 0 4 0.053000 55.981998 36.455002 462.651001
47 0 4 0.053000 54.179001 36.321999 462.725006
48 0 4 0.053000 54.209999 34.862999 460.683014
49 0 4 0.053000 56.013000 34.986000 460.627014
50 0 4 0.053000 55.840000 37.457001 460.398987
51 0 4 0.053000 54.035000 37.334999 460.429993
52 0 4 0.053000 54.115002 35.861000 458.390015
53 0 4 0.053000 55.903999 35.980000 458.369995
54 0 4 0.053000 55.853001 36.743999 456.096985
55 0 4 0.053000 54.849998 38.153999 455.617004
56 0 4 0.053000 54.056999 36.616001 456.101990
57 0 4 0.053000 53.577000 38.937000 458.973999
58 0 4 0.053000 52.737999 37.826000 457.826996
59 0 4 0.053000 53.519001 39.338001 457.239990
60 0 4 0.053000 56.015999 39.117001 458.960999
61 0 4 0.053000 56.016998 39.507999 457.226013
62 0 4 0.053000 57.000000 38.122002 457.821991
63 0 5 -1.000000 55.109001 39.623001 458.403015
64 0 1 -0.106000 14.402000 54.314999 512.210999
65 0 1 -0.106000 14.511000 54.527000 513.721985
66 0 1 -0.106000 15.551000 53.581001 514.330017
67 0 1 -0.106000 15.639000 53.775002 515.846008
68 0 1 -0.106000 16.657000 52.810001 516.458008
69 0 1 -0.106000 16.739000 52.998001 517.974976
70 0 1 -0.106000 17.749001 52.026001 518.586975
71 0 1 -0.106000 17.844999 52.221001 520.101990
72 0 1 -0.106000 18.870001 51.257000 520.705017
73 0 1 -0.106000 18.996000 51.466999 522.216003
74 0 1 -0.106000 20.044001 50.516998 522.807007
75 0 1 0.301100 20.198999 50.750999 524.327026
76 0 2 -0.628400 21.209999 49.884998 525.008972
77 0 3 0.248100 22.569000 50.096001 524.453003
78 0 3 0.248100 20.851000 48.450001 524.906006
79 0 3 0.248100 21.232000 50.257000 526.443970
80 0 1 -0.106000 13.338000 55.237000 511.605988
81 0 1 -0.106000 13.212000 55.007999 510.096985
82 0 1 -0.106000 12.134000 55.915001 509.496002
83 0 3 -0.159000 11.998000 55.681999 507.993011
84 0 4 0.053000 11.211000 56.348000 507.584015
85 0 4 0.053000 11.713000 54.626999 507.791992
86 0 4 0.053000 12.958000 55.905998 507.480988
87 0 4 0.053000 12.398000 56.980000 509.673004
88 0 4 0.053000 11.155000 55.706001 509.980011
89 0 4 0.053000 12.941000 53.945000 509.910004
90 0 4 0.053000 14.189000 55.220001 509.609985
91 0 4 0.053000 13.615000 56.297001 511.799988
92 0 4 0.053000 12.358000 55.028999 512.091003
93 0 4 0.053000 14.122000 53.257000 512.010010
94 0 4 0.053000 15.386000 54.521999 511.734985
95 0 4 0.053000 13.522000 54.327000 514.190979
96 0 4 0.053000 14.801000 55.580002 513.931030
97 0 4 0.053000 16.545000 53.777000 513.872009
98 0 4 0.053000 15.258000 52.528999 514.114014
99 0 4 0.053000 14.642000 53.585999 516.299011
100 0 4 0.053000 15.942000 54.823002 516.067017
101 0 4 0.053000 17.659000 52.995998 516.007996
102 0 4 0.053000 16.353001 51.764000 516.234009
103 0 4 0.053000 15.736000 52.814999 518.424011
104 0 4 0.053000 17.048000 54.042000 518.198975
105 0 4 0.053000 18.749001 52.205002 518.132019
106 0 4 0.053000 17.438000 50.980999 518.367981
107 0 4 0.053000 16.850000 52.041000 520.564026
108 0 4 0.053000 18.155001 53.266998 520.315979
109 0 4 0.053000 19.858000 51.435001 520.229004
110 0 4 0.053000 18.556000 50.209000 520.500977
111 0 4 0.053000 18.011999 51.285000 522.702026
112 0 4 0.053000 19.304001 52.518002 522.413025
113 0 4 0.053000 21.007000 50.709999 522.289978
114 0 4 0.053000 19.721001 49.476002 522.603027
115 0 4 0.053000 19.198999 50.598000 524.796021
116 0 4 0.053000 20.469000 51.821999 524.476013
117 0 4 0.053000 21.511999 51.326000 526.578003
118 0 4 0.053000 21.969000 49.644001 527.010010
119 0 4 0.053000 20.235001 50.103001 526.914978
120 0 4 0.053000 20.903000 48.087002 523.856995
121 0 4 0.053000 19.823000 48.265999 525.291016
122 0 4 0.053000 21.556000 47.819000 525.492004
123 0 4 0.053000 22.643999 49.743000 523.403992
124 0 4 0.053000 23.330000 49.525002 525.030029
125 0 4 0.053000 22.850000 51.173000 524.484985
126 0 5 -1.000000 22.537001 48.750999 524.031982
127 0 1 -0.106000 25.004000 4.425000 200.251007
128 0 1 -0.106000 26.372000 5.092000 200.091003
129 0 1 -0.106000 27.108000 4.537000 198.869003
130 0 1 -0.106000 28.488001 5.186000 198.725998
131 0 1 -0.106000 29.237000 4.611000 197.522003
132 0 1 -0.106000 30.618999 5.253000 197.384995
133 0 1 -0.106000 31.370001 4.670000 196.186005
134 0 1 -0.106000 32.747002 5.320000 196.037003
135 0 1 -0.106000 33.486000 4.745000 194.826996
136 0 1 -0.106000 34.852001 5.413000 194.649002
137 0 1 -0.106000 35.573002 4.849000 193.419006
138 0 1 0.301100 36.937000 5.546000 193.218002
139 0 2 -0.628400 37.724998 5.085000 192.033005
140 0 3 0.248100 36.988998 5.320000 190.768005
141 0 3 0.248100 38.074001 3.647000 192.143005
142 0 3 0.248100 38.983002 5.867000 191.992004
143 0 1 -0.106000 24.280001 4.955000 201.492996
144 0 1 -0.106000 22.922001 4.270000 201.666000
145 0 1 -0.106000 22.205999 4.785000 202.917999
146 0 3 -0.159000 20.856001 4.096000 203.100006
147 0 4 0.053000 20.361000 4.485000 204.014008
148 0 4 0.053000 20.996000 3.000000 203.207993
149 0 4 0.053000 20.201000 4.297000 202.225998
150 0 4 0.053000 22.042999 5.882000 202.832993
151 0 4 0.053000 22.832001 4.587000 203.815002
152 0 4 0.053000 23.076000 3.172000 201.757996
153 0 4 0.053000 22.292000 4.470000 200.770996
154 0 4 0.053000 24.132999 6.054000 201.393005
155 0 4 0.053000 24.906000 4.758000 202.391998
156 0 4 0.053000 25.143999 3.326000 200.354004
157 0 4 0.053000 24.386999 4.624000 199.347000
158 0 4 0.053000 26.982000 4.897000 201.001999
159 0 4 0.053000 26.240000 6.191000 199.977005
160 0 4 0.053000 26.509001 4.733000 197.951996
161 0 4 0.053000 27.233999 3.437000 198.987000
162 0 4 0.053000 29.080000 4.995000 199.647003
163 0 4 0.053000 28.367001 6.285000 198.598007
164 0 4 0.053000 28.648001 4.800000 196.595993
165 0 4 0.053000 29.353001 3.512000 197.651993
166 0 4 0.053000 31.205999 5.066000 198.311996
167 0 4 0.053000 30.502001 6.350000 197.248993
168 0 4 0.053000 30.778000 4.851000 195.261993
169 0 4 0.053000 31.492001 3.573000 196.324005
170 0 4 0.053000 33.346001 5.140000 196.957001
171 0 4 0.053000 32.619999 6.417000 195.901001
172 0 4 0.053000 32.875000 4.917000 193.914001
173 0 4 0.053000 33.624001 3.649000 194.964005
174 0 4 0.053000 35.473000 5.240000 195.556000
175 0 4 0.053000 34.707001 6.508000 194.518005
176 0 4 0.053000 34.922001 5.020000 192.537003
177 0 4 0.053000 35.709999 3.758000 193.567993
178 0 4 0.053000 37.535000 5.393000 194.147003
179 0 4 0.053000 36.744999 6.641000 193.130005
180 0 4 0.053000 38.776001 6.957000 191.895004
181 0 4 0.053000 39.618000 5.568000 191.126999
182 0 4 0.053000 39.583000 5.714000 192.917999
183 0 4 0.053000 37.173000 3.000000 192.091003
184 0 4 0.053000 38.604000 3.436000 193.098007
185 0 4 0.053000 38.736000 3.333000 191.304993
186 0 4 0.053000 36.082001 4.685000 190.694000
187 0 4 0.053000 37.619999 5.067000 189.886002
188 0 4 0.053000 36.682999 6.386000 190.675995
189 0 5 -1.000000 36.974998 3.922000 190.589996
190 0 3 -0.159000 18.947001 15.465000 69.071999
191 0 1 -0.106000 19.278000 13.973000 69.142998
192 0 1 -0.106000 20.778999 13.739000 68.948997
193 0 1 -0.106000 21.105000 12.243000 68.994003
194 0 1 -0.106000 22.600000 12.007000 68.771004
195 0 1 -0.106000 22.924000 10.512000 68.806000
196 0 1 -0.106000 24.417999 10.276000 68.573997
197 0 1 -0.106000 24.747999 8.783000 68.623001
198 0 1 -0.106000 26.246000 8.555000 68.406998
199 0 1 -0.106000 26.591999 7.066000 68.487999
200 0 1 -0.106000 28.098000 6.851000 68.296997
201 0 1 0.301100 28.455000 5.352000 68.412003
202 0 2 -0.628400 29.906000 5.024000 68.257004
203 0 3 0.248100 30.726999 5.690000 69.296997
204 0 3 0.248100 30.405001 5.405000 66.914001
205 0 1 0.301100 30.059000 3.558000 68.412003
206 0 1 -0.106000 17.441000 15.698000 69.231003
207 0 1 -0.106000 17.107000 17.188999 69.136002
208 0 1 -0.106000 15.599000 17.421000 69.276001
209 0 1 -0.106000 15.261000 18.906000 69.169998
210 0 1 -0.106000 14.165000 19.045000 69.272003
211 0 1 -0.106000 15.582000 19.304001 68.183998
212 0 1 -0.106000 15.770000 19.474001 69.976997
213 0 1 -0.106000 15.251000 17.041000 70.261002
214 0 1 -0.106000 15.060000 16.874001 68.472000
215 0 1 -0.106000 17.445999 17.577000 68.150002
216 0 3 -0.159000 17.642000 17.738001 69.941002
217 0 4 0.053000 17.108999 15.304000 70.218002
218 0 4 0.053000 16.900000 15.150000 68.428001
219 0 4 0.053000 19.273001 15.864000 68.084999
220 0 4 0.053000 19.493999 16.004999 69.875999
221 0 4 0.053000 18.721001 13.437000 68.342003
222 0 4 0.053000 18.964001 13.568000 70.129997
223 0 4 0.053000 21.344000 14.266000 69.749001
224 0 4 0.053000 21.087000 14.149000 67.961998
225 0 4 0.053000 20.532000 11.719000 68.197998
226 0 4 0.053000 20.806999 11.830000 69.983002
227 0 4 0.053000 23.179001 12.530000 69.566002
228 0 4 0.053000 22.895000 12.423000 67.782997
229 0 4 0.053000 22.343000 9.989000 68.014000
230 0 4 0.053000 22.634001 10.097000 69.796997
231 0 4 0.053000 24.997000 10.805000 69.362999
232 0 4 0.053000 24.707001 10.686000 67.582001
233 0 4 0.053000 24.174000 8.248000 67.834999
234 0 4 0.053000 24.455999 8.377000 69.616997
235 0 4 0.053000 26.813000 9.104000 69.191002
236 0 4 0.053000 26.540001 8.951000 67.408997
237 0 4 0.053000 26.034000 6.510000 67.703003
238 0 4 0.053000 26.291000 6.676000 69.485001
239 0 4 0.053000 28.625999 7.431000 69.082001
240 0 4 0.053000 28.379999 7.244000 67.299004
241 0 4 0.053000 27.863001 4.803000 67.641998
242 0 4 0.053000 28.100000 4.998000 69.407997
243 0 4 0.053000 29.709999 3.221000 69.414001
244 0 4 0.053000 31.124001 3.249000 68.306000
245 0 4 0.053000 29.471001 3.008000 67.641998
246 0 4 0.053000 30.398001 6.507000 66.768997
247 0 4 0.053000 29.789000 4.941000 66.112000
248 0 4 0.053000 31.459000 5.077000 66.773003
249 0 4 0.053000 30.733000 6.793000 69.175003
250 0 4 0.053000 31.789000 5.364000 69.237000
251 0 4 0.053000 30.351000 5.449000 70.317001
252 0 4 0.053000 31.358000 6.399000 68.255997
253 0 4 0.053000 47.000000 13.557000 522.539001
254 0 4 0.053000 46.130001 12.948000 521.435974
255 0 4 0.053000 44.992001 12.118000 522.038025
256 0 4 0.053000 44.139000 11.488000 520.932983
257 0 4 0.053000 43.019001 10.635000 521.533020
258 0 4 0.053000 42.173000 9.998000 520.429016
259 0 4 0.053000 41.058998 9.137000 521.028992
260 0 4 0.053000 40.201000 8.510000 519.929016
261 0 4 0.053000 39.078999 7.664000 520.536011
262 0 4 0.053000 38.195000 7.059000 519.442993
263 0 4 0.053000 37.058998 6.236000 520.062012
264 0 4 0.053000 36.144001 5.653000 518.961975
265 0 4 0.053000 34.987999 4.841000 519.452026
266 0 4 0.053000 34.084000 5.646000 520.309021
267 0 4 0.053000 35.445999 3.647000 520.203003
268 0 4 0.053000 34.221001 4.382000 518.270020
269 0 4 0.053000 48.159000 14.359000 521.939026
270 0 4 0.053000 49.042999 14.948000 523.041992
271 0 4 0.053000 50.213001 15.734000 522.442017
272 0 4 0.053000 51.103001 16.313999 523.539001
273 0 5 -1.000000 51.942001 16.875000 523.078979
274 0 1 -0.106000 51.520000 15.498000 524.166016
275 0 1 -0.106000 50.519001 17.007000 524.182007
276 0 1 -0.106000 49.824001 16.566999 521.815979
277 0 1 -0.106000 50.826000 15.063000 521.802002
278 0 1 -0.106000 49.442001 14.121000 523.669983
279 0 1 -0.106000 48.432999 15.623000 523.682007
280 0 1 -0.106000 47.750999 15.182000 521.309998
281 0 1 -0.106000 48.772999 13.689000 521.296997
282 0 1 -0.106000 47.414001 12.739000 523.169983
283 0 1 -0.106000 46.377998 14.222000 523.177002
284 0 1 -0.106000 46.759998 12.290000 520.796997
285 0 1 0.301100 45.705002 13.760000 520.807007
286 0 2 -0.628400 44.354000 12.769000 522.674988
287 0 3 0.248100 45.424999 11.310000 522.669006
288 0 3 0.248100 44.783001 10.846000 520.294006
289 0 3 0.248100 43.696999 12.293000 520.304993
290 0 1 -0.106000 42.370998 11.274000 522.174011
291 0 1 -0.106000 43.465000 9.834000 522.163025
292 0 1 -0.106000 42.821999 9.361000 519.786011
293 0 3 -0.159000 41.723000 10.799000 519.802002
294 0 4 0.053000 40.415001 9.773000 521.677002
295 0 4 0.053000 41.507999 8.332000 521.651978
296 0 4 0.053000 40.837002 7.870000 519.278992
297 0 4 0.053000 39.755001 9.319000 519.309021
298 0 4 0.053000 38.456001 8.308000 521.193970
299 0 4 0.053000 39.522999 6.848000 521.148987
300 0 4 0.053000 38.810001 6.408000 518.783020
301 0 4 0.053000 37.759998 7.880000 518.830994
302 0 4 0.053000 36.477001 6.908000 520.726990
303 0 4 0.053000 37.509998 5.423000 520.666992
304 0 4 0.053000 36.779999 5.030000 518.289001
305 0 4 0.053000 35.764999 6.507000 518.353027
306 0 4 0.053000 33.841000 5.244000 517.677979
307 0 4 0.053000 33.341999 3.768000 518.570984
308 0 4 0.053000 34.853001 3.757000 517.598022
309 0 4 0.053000 35.953999 3.926000 521.150024
310 0 4 0.053000 36.148998 3.037000 519.593018
311 0 4 0.053000 34.585999 3.000000 520.486023
312 0 4 0.053000 34.570999 5.940000 521.260986
313 0 4 0.053000 33.175999 5.066000 520.588013
314 0 4 0.053000 33.752998 6.569000 519.781982
315 0 4 0.053000 34.414001 4.776000 521.367004
316 0 4 0.053000 4.329000 4.686000 236.337006
317 0 4 0.053000 4.389000 3.820000 235.076004
318 0 4 0.053000 4.477000 4.693000 233.820999
319 0 4 0.053000 4.509000 3.825000 232.559006
320 0 4 0.053000 4.568000 4.697000 231.302994
321 0 4 0.053000 4.591000 3.830000 230.042007
322 0 4 0.053000 4.640000 4.702000 228.785995
323 0 4 0.053000 4.678000 3.839000 227.524002
324 0 4 0.053000 4.744000 4.717000 226.272003
325 0 4 0.053000 4.816000 3.862000 225.003998
326 0 4 0.053000 4.910000 4.750000 223.757996
327 0 4 0.053000 5.017000 3.889000 222.479996
328 0 4 0.053000 5.129000 4.654000 221.199005
329 0 4 0.053000 6.340000 5.510000 221.182007
330 0 4 0.053000 3.928000 5.491000 220.962997
331 0 4 0.053000 5.238000 3.673000 220.093002
332 0 4 0.053000 4.206000 3.816000 237.591003
333 0 4 0.053000 4.122000 4.683000 238.850006
334 0 4 0.053000 3.980000 3.814000 240.104004
335 0 4 0.053000 3.885000 4.676000 241.360001
336 0 5 -1.000000 3.780000 4.023000 242.251007
337 0 1 -0.106000 3.000000 5.345000 241.300995
338 0 1 -0.106000 4.802000 5.292000 241.473999
339 0 1 -0.106000 4.859000 3.140000 240.195007
340 0 1 -0.106000 3.061000 3.193000 240.026001
341 0 1 -0.106000 3.241000 5.358000 238.770996
342 0 1 -0.106000 5.042000 5.303000 238.932007
343 0 1 -0.106000 5.090000 3.143000 237.660995
344 0 1 -0.106000 3.287000 3.193000 237.514008
345 0 1 -0.106000 3.445000 5.360000 236.274002
346 0 1 -0.106000 5.249000 5.308000 236.403000
347 0 1 -0.106000 3.470000 3.195000 235.018997
348 0 1 0.301100 5.276000 3.151000 235.126007
349 0 2 -0.628400 5.396000 5.317000 233.865997
350 0 3 0.248100 3.589000 5.363000 233.779007
351 0 3 0.248100 3.593000 3.197000 232.522995
352 0 3 0.248100 5.401000 3.160000 232.591995
353 0 1 -0.106000 5.485000 5.328000 231.334000
354 0 1 -0.106000 3.677000 5.362000 231.274994
355 0 1 -0.106000 3.676000 3.196000 230.013000
356 0 3 -0.159000 5.485000 3.168000 230.067993
357 0 4 0.053000 5.552000 5.340000 228.820007
358 0 4 0.053000 3.744000 5.360000 228.757004
359 0 4 0.053000 3.769000 3.201000 227.481003
360 0 4 0.053000 5.576000 3.182000 227.557999
361 0 4 0.053000 5.649000 5.361000 226.328995
362 0 4 0.053000 3.843000 5.368000 226.229996
363 0 4 0.053000 3.912000 3.219000 224.936996
364 0 4 0.053000 5.716000 3.210000 225.056000
365 0 4 0.053000 5.809000 5.391000 223.865005
366 0 4 0.053000 4.005000 5.392000 223.723007
367 0 4 0.053000 4.121000 3.226000 222.442993
368 0 4 0.053000 5.907000 3.228000 222.595001
369 0 4 0.053000 6.135000 3.026000 220.216003
370 0 4 0.053000 5.324000 4.183000 219.106995
371 0 4 0.053000 4.342000 3.011000 220.052002
372 0 4 0.053000 3.839000 6.305000 221.714005
373 0 4 0.053000 3.000000 4.878000 220.998001
374 0 4 0.053000 3.977000 5.986000 219.966995
375 0 4 0.053000 6.276000 6.330000 221.927002
376 0 4 0.053000 6.470000 5.998000 220.190994
377 0 4 0.053000 7.254000 4.912000 221.393005
378 0 4 0.053000 5.476000 6.621000 221.110992
379 0 4 0.053000 21.697001 32.828999 397.225006
380 0 4 0.053000 21.513000 34.341999 397.356995
381 0 4 0.053000 20.034000 34.723000 397.243988
382 0 4 0.053000 19.855000 36.240002 397.350006
383 0 4 0.053000 18.381001 36.624001 397.208008
384 0 4 0.053000 18.202999 38.139999 397.304993
385 0 4 0.053000 16.730000 38.523998 397.152008
386 0 4 0.053000 16.546000 40.039001 397.263000
387 0 4 0.053000 15.068000 40.414001 397.127014
388 0 4 0.053000 14.870000 41.924999 397.269989
389 0 4 0.053000 13.385000 42.287998 397.158997
390 0 4 0.053000 13.179000 43.807999 397.338013
391 0 4 0.053000 11.760000 44.276001 397.263000
392 0 4 0.053000 10.927000 43.654999 398.321014
393 0 4 0.053000 11.166000 43.991001 395.933990
394 0 4 0.053000 11.755000 45.743999 397.470001
395 0 4 0.053000 23.179001 32.450001 397.303986
396 0 4 0.053000 23.364000 30.938000 397.147003
397 0 4 0.053000 24.848000 30.561001 397.205994
398 0 4 0.053000 25.037001 29.055000 397.039001
399 0 5 -1.000000 26.118999 28.809999 397.083008
400 0 1 -0.106000 24.636000 28.724001 396.057007
401 0 1 -0.106000 24.513000 28.509001 397.851990
402 0 1 -0.106000 25.275000 30.871000 398.183990
403 0 1 -0.106000 25.399000 31.083000 396.394012
404 0 1 -0.106000 22.945000 30.618999 396.166992
405 0 1 -0.106000 22.816000 30.414000 397.959991
406 0 1 -0.106000 23.591000 32.776001 398.285004
407 0 1 -0.106000 23.733000 32.973000 396.492004
408 0 1 -0.106000 21.289000 32.497002 396.243011
409 0 1 -0.106000 21.136999 32.314999 398.036987
410 0 1 -0.106000 22.082001 34.851002 396.546997
411 0 1 0.301100 21.909000 34.681000 398.339996
412 0 2 -0.628400 19.458000 34.223000 398.053986
413 0 3 0.248100 19.643000 34.377998 396.260986
414 0 3 0.248100 20.438999 36.735001 396.544006
415 0 3 0.248100 20.236000 36.588001 398.337006
416 0 1 -0.106000 17.791000 36.130001 398.013000
417 0 1 -0.106000 18.003000 36.271999 396.221985
418 0 1 -0.106000 18.795000 38.633999 396.501007
419 0 3 -0.159000 18.576000 38.491001 398.291992
420 0 4 0.053000 16.138000 38.023998 397.951996
421 0 4 0.053000 16.358000 38.178001 396.162994
422 0 4 0.053000 17.132000 40.544998 396.464996
423 0 4 0.053000 16.921000 40.380001 398.253998
424 0 4 0.053000 14.488000 39.894001 397.920990
425 0 4 0.053000 14.694000 40.083000 396.132996
426 0 4 0.053000 15.443000 42.452999 396.476013
427 0 4 0.053000 15.253000 42.249001 398.263000
428 0 4 0.053000 12.840000 41.731998 397.950012
429 0 4 0.053000 13.022000 41.958000 396.164001
430 0 4 0.053000 13.784000 44.326000 396.557007
431 0 4 0.053000 13.610000 44.091999 398.325989
432 0 4 0.053000 12.179000 46.012001 398.463989
433 0 4 0.053000 10.721000 46.155998 397.424988
434 0 4 0.053000 12.357000 46.263000 396.690002
435 0 4 0.053000 11.062000 42.900002 395.756012
436 0 4 0.053000 11.786000 44.424000 395.118011
437 0 4 0.053000 10.143000 44.422001 395.855011
438 0 4 0.053000 10.811000 42.562000 398.165009
439 0 4 0.053000 9.899000 44.081001 398.321991
440 0 4 0.053000 11.371000 43.823002 399.328003
441 0 4 0.053000 10.185000 43.043999 397.290009
442 0 4 0.053000 36.861000 51.325001 478.687988
443 0 4 0.053000 37.903000 50.234001 478.436005
444 0 4 0.053000 37.229000 48.925999 478.010010
445 0 4 0.053000 38.271999 47.827999 477.783997
446 0 4 0.053000 37.598000 46.513000 477.388000
447 0 4 0.053000 38.639000 45.412998 477.170990
448 0 4 0.053000 37.963001 44.096001 476.783997
449 0 4 0.053000 39.001999 42.997002 476.552002
450 0 4 0.053000 38.320000 41.687000 476.148987
451 0 4 0.053000 39.354000 40.590000 475.881989
452 0 4 0.053000 38.662998 39.291000 475.453003
453 0 4 0.053000 39.706001 38.192001 475.148987
454 0 4 0.053000 39.144001 36.879002 474.704987
455 0 4 0.053000 38.365002 37.019001 473.450989
456 0 4 0.053000 38.286999 36.275002 475.755005
457 0 4 0.053000 40.279999 35.962002 474.446991
458 0 4 0.053000 37.530998 52.625000 479.145996
459 0 4 0.053000 36.486000 53.709000 479.421997
460 0 4 0.053000 37.153999 55.002998 479.899994
461 0 4 0.053000 36.115002 56.083000 480.186005
462 0 5 -1.000000 36.624001 57.006001 480.532013
463 0 1 -0.106000 35.416000 55.742001 480.979004
464 0 1 -0.106000 35.537998 56.316002 479.265991
465 0 1 -0.106000 37.854000 55.373001 479.118988
466 0 1 -0.106000 37.730000 54.805000 480.829987
467 0 1 -0.106000 35.785000 53.348999 480.207001
468 0 1 -0.106000 35.910999 53.910999 478.492004
469 0 1 -0.106000 38.233002 52.976002 478.356995
470 0 1 -0.106000 38.109001 52.428001 480.076996
471 0 1 -0.106000 36.158001 50.980999 479.480011
472 0 1 -0.106000 36.285999 51.512001 477.755005
473 0 1 -0.106000 38.480999 50.056999 479.371002
474 0 1 0.301100 38.605000 50.566002 477.638000
475 0 2 -0.628400 36.654999 49.091000 477.072998
476 0 3 0.248100 36.527000 48.602001 478.809998
477 0 3 0.248100 38.849998 47.672001 478.721008
478 0 3 0.248100 38.972000 48.144001 476.977997
479 0 1 -0.106000 37.018002 46.662998 476.449005
480 0 1 -0.106000 36.896999 46.201000 478.194000
481 0 1 -0.106000 39.221001 45.264999 478.108002
482 0 3 -0.159000 39.335999 45.722000 476.360992
483 0 4 0.053000 37.376999 44.247002 475.851013
484 0 4 0.053000 37.270000 43.783001 477.596008
485 0 4 0.053000 39.591000 42.838001 477.481995
486 0 4 0.053000 39.694000 43.314999 475.739990
487 0 4 0.053000 37.723999 41.858002 475.226013
488 0 4 0.053000 37.636002 41.362000 476.963013
489 0 4 0.053000 39.952000 40.408001 476.802002
490 0 4 0.053000 40.039001 40.924999 475.071014
491 0 4 0.053000 38.062000 39.508999 474.545990
492 0 4 0.053000 37.987000 38.972000 476.272003
493 0 4 0.053000 40.319000 38.043999 476.070007
494 0 4 0.053000 40.389999 38.585999 474.362000
495 0 4 0.053000 40.948002 36.363998 473.653015
496 0 4 0.053000 39.924000 34.962002 474.112000
497 0 4 0.053000 40.891998 35.811001 475.364990
498 0 4 0.053000 37.368999 36.874001 475.932007
499 0 4 0.053000 38.839001 36.182999 476.717010
500 0 4 0.053000 37.945999 35.258999 475.454987
501 0 4 0.053000 37.442001 37.617001 473.602997
502 0 4 0.053000 38.034000 36.025002 473.074005
503 0 4 0.053000 38.973000 37.502998 472.654999
504 0 4 0.053000 37.230999 36.612999 474.183990
505 0 4 0.053000 55.388000 53.639000 462.520996
506 0 4 0.053000 55.747002 52.333000 463.234009
507 0 4 0.053000 55.348000 52.391998 464.710999
508 0 4 0.053000 55.731998 51.095001 465.428009
509 0 4 0.053000 55.360001 51.162998 466.911011
510 0 4 0.053000 55.751999 49.870998 467.628998
511 0 4 0.053000 55.389000 49.945000 469.113007
512 0 4 0.053000 55.765999 48.647999 469.832001
513 0 4 0.053000 55.383999 48.722000 471.312988
514 0 4 0.053000 55.728001 47.416000 472.033997
515 0 4 0.053000 55.317001 47.490002 473.509003
516 0 4 0.053000 55.631001 46.160000 474.230988
517 0 4 0.053000 55.257000 46.112999 475.678986
518 0 4 0.053000 53.799999 46.312000 475.868988
519 0 4 0.053000 56.001999 47.126999 476.463013
520 0 4 0.053000 55.613998 44.770000 476.196014
521 0 4 0.053000 55.818001 53.595001 461.052002
522 0 4 0.053000 55.480000 54.910999 460.345001
523 0 4 0.053000 55.928001 54.875000 458.880005
524 0 4 0.053000 55.603001 56.188999 458.175995
525 0 5 -1.000000 55.938999 56.138000 457.118988
526 0 3 -0.159000 56.125000 57.033001 458.675995
527 0 1 -0.106000 54.507999 56.375000 458.194000
528 0 1 -0.106000 55.410999 54.044998 458.351013
529 0 1 -0.106000 57.025002 54.702999 458.828003
530 0 1 -0.106000 55.998001 55.747002 460.864014
531 0 1 -0.106000 54.382999 55.084000 460.393005
532 0 1 -0.106000 55.298000 52.754002 460.540009
533 0 1 -0.106000 56.916000 53.422001 460.997986
534 0 1 -0.106000 55.908001 54.484001 463.026001
535 0 1 -0.106000 54.290001 53.806000 462.583008
536 0 1 -0.106000 56.845001 52.167999 463.161011
537 0 1 0.301100 55.223000 51.484001 462.740997
538 0 2 -0.628400 54.250000 52.550999 464.792999
539 0 3 0.248100 55.872002 53.244999 465.196991
540 0 3 0.248100 56.827999 50.935001 465.335999
541 0 1 0.301100 55.202000 50.238998 464.951996
542 0 1 -0.106000 54.262001 51.321999 467.009003
543 0 1 -0.106000 55.888000 52.021000 467.381989
544 0 1 -0.106000 56.848999 49.709999 467.528015
545 0 1 -0.106000 55.220001 49.014000 467.160004
546 0 1 -0.106000 54.292999 50.112000 469.212006
547 0 1 -0.106000 55.924999 50.798000 469.584015
548 0 1 -0.106000 56.861000 48.474998 469.739990
549 0 1 -0.106000 55.228001 47.798000 469.356995
550 0 1 -0.106000 54.291000 48.907001 471.395996
551 0 1 -0.106000 55.929001 49.564999 471.792999
552 0 3 -0.159000 56.820999 47.226002 471.960999
553 0 4 0.053000 55.185001 46.577000 471.545013
554 0 4 0.053000 54.228001 47.699001 473.548004
555 0 4 0.053000 55.868000 48.330002 473.980011
556 0 4 0.053000 56.723999 45.966000 474.121002
557 0 4 0.053000 55.098000 45.348000 473.684998
558 0 4 0.053000 55.068001 43.970001 475.648010
559 0 4 0.053000 55.359001 44.671001 477.274994
560 0 4 0.053000 56.705002 44.574001 476.088989
561 0 4 0.053000 55.710999 48.160999 476.181000
562 0 4 0.053000 57.099998 47.018002 476.316986
563 0 4 0.053000 55.787998 47.026001 477.550995
564 0 4 0.053000 53.484001 47.339001 475.591003
565 0 4 0.053000 53.514999 46.176998 476.937012
566 0 4 0.053000 53.215000 45.585999 475.261993
567 0 4 0.053000 54.117001 47.491001 476.574005
568 0 4 0.053000 55.929001 7.512000 522.745972
569 0 4 0.053000 55.877998 8.156000 524.132996
570 0 4 0.053000 55.769001 7.087000 525.223999
571 0 4 0.053000 55.691002 7.733000 526.609985
572 0 4 0.053000 55.553001 6.668000 527.700012
573 0 4 0.053000 55.466000 7.314000 529.083984
574 0 4 0.053000 55.318001 6.248000 530.171021
575 0 4 0.053000 55.244999 6.890000 531.557983
576 0 4 0.053000 55.115002 5.818000 532.642029
577 0 4 0.053000 55.075001 6.449000 534.036011
578 0 4 0.053000 54.971001 5.365000 535.116028
579 0 4 0.053000 54.966000 5.998000 536.526001
580 0 4 0.053000 54.882000 5.030000 537.663025
581 0 4 0.053000 56.037998 4.100000 537.669983
582 0 4 0.053000 53.620998 4.250000 537.617981
583 0 4 0.053000 54.904999 5.807000 538.924011
584 0 4 0.053000 56.002998 8.581000 521.651001
585 0 4 0.053000 56.029999 7.938000 520.262024
586 0 4 0.053000 56.084000 9.007000 519.166016
587 0 4 0.053000 56.099998 8.369000 517.778992
588 0 4 0.053000 56.136002 9.164000 517.005005
589 0 4 0.053000 55.181999 7.763000 517.624023
590 0 4 0.053000 56.992001 7.718000 517.664978
591 0 4 0.053000 57.000000 9.624000 519.289001
592 0 4 0.053000 55.194000 9.669000 519.244995
593 0 4 0.053000 55.112999 7.323000 520.125977
594 0 4 0.053000 56.919998 7.277000 520.179016
595 0 4 0.053000 56.921001 9.194000 521.794983
596 0 4 0.053000 55.112999 9.246000 521.729004
597 0 4 0.053000 55.011002 6.900000 522.593994
598 0 4 0.053000 56.818001 6.848000 522.677979
599 0 4 0.053000 54.991001 8.826000 524.192017
600 0 4 0.053000 56.796001 8.761000 524.296997
601 0 4 0.053000 56.654999 6.416000 525.177002
602 0 4 0.053000 54.851002 6.482000 525.052979
603 0 4 0.053000 54.810001 8.410000 526.650024
604 0 4 0.053000 56.612000 8.331000 526.791016
605 0 4 0.053000 56.433998 5.987000 527.664001
606 0 4 0.053000 54.632999 6.070000 527.515015
607 0 4 0.053000 54.587002 7.997000 529.117004
608 0 4 0.053000 56.388000 7.908000 529.270020
609 0 5 -1.000000 56.194000 5.563000 530.130981
610 0 1 -0.106000 54.393002 5.658000 529.987976
611 0 1 -0.106000 54.369999 7.575000 531.606995
612 0 1 -0.106000 56.172001 7.480000 531.736023
613 0 1 -0.106000 55.987000 5.130000 532.578003
614 0 1 -0.106000 54.183998 5.233000 532.471985
615 0 1 -0.106000 54.202000 7.134000 534.111023
616 0 1 -0.106000 56.006001 7.037000 534.195984
617 0 1 -0.106000 55.844002 4.689000 535.002991
618 0 1 -0.106000 54.039001 4.791000 534.940979
619 0 1 -0.106000 54.105000 6.706000 536.575012
620 0 1 -0.106000 55.895000 6.605000 536.625000
621 0 1 0.301100 55.841999 6.402000 539.013977
622 0 2 -0.628400 54.844002 5.140000 539.812988
623 0 3 0.248100 54.044998 6.515000 538.976990