LAMMPS data file containing the original structures and the polarizable gold

19593 atoms
16043 bonds
25386 angles
36279 dihedrals
0 impropers

7 atom types
7 bond types
13 angle types
15 dihedral types

-47.773190 107.405807 xlo xhi
-3.000000 64.511269 ylo yhi
-3.000000 94.498802 zlo zhi

Masses

1 12.011150
2 14.006700
3 12.011150
4 1.007970
5 79.908997
6 195.960007
7 1.000000

Atoms

1 1 1 -0.106000 48.926998 19.672001 20.639000
2 1 1 -0.106000 48.877998 18.172001 20.340000
3 1 1 -0.106000 49.915001 17.417000 21.176001
4 1 1 -0.106000 49.882999 15.920000 20.856001
5 1 1 -0.106000 50.938999 15.168000 21.670000
6 1 1 -0.106000 50.912998 13.673000 21.341999
7 1 1 -0.106000 51.974998 12.924000 22.149000
8 1 1 -0.106000 51.943001 11.427000 21.836000
9 1 1 -0.106000 52.995998 10.681000 22.659000
10 1 1 -0.106000 52.950001 9.177000 22.377001
11 1 1 -0.106000 53.988998 8.436000 23.225000
12 1 1 0.301100 53.921001 6.915000 22.968000
13 1 2 -0.628400 54.884998 6.086000 23.757000
14 1 3 0.248100 54.660000 6.234000 25.215000
15 1 3 0.248100 56.289001 6.438000 23.434999
16 1 3 0.248100 54.666000 4.666000 23.395000
17 1 1 -0.106000 47.914001 20.433001 19.778000
18 1 1 -0.106000 47.979000 21.937000 20.061001
19 1 1 -0.106000 46.980999 22.701000 19.186001
20 1 3 -0.159000 47.050999 24.201000 19.457001
21 1 4 0.053000 46.320999 24.730000 18.809999
22 1 4 0.053000 48.069000 24.584999 19.233999
23 1 4 0.053000 46.805000 24.412001 20.520000
24 1 4 0.053000 45.949001 22.344000 19.396000
25 1 4 0.053000 47.209000 22.520000 18.113001
26 1 4 0.053000 49.007000 22.304001 19.847000
27 1 4 0.053000 47.748001 22.120001 21.132999
28 1 4 0.053000 46.889000 20.058001 19.996000
29 1 4 0.053000 48.139999 20.253000 18.702999
30 1 4 0.053000 49.949001 20.054001 20.420000
31 1 4 0.053000 48.702999 19.841999 21.715000
32 1 4 0.053000 49.095001 18.007999 19.260000
33 1 4 0.053000 47.862000 17.780001 20.565001
34 1 4 0.053000 49.702999 17.569000 22.257999
35 1 4 0.053000 50.928001 17.816000 20.948999
36 1 4 0.053000 50.087002 15.772000 19.773001
37 1 4 0.053000 48.874001 15.513000 21.091000
38 1 4 0.053000 50.738998 15.312000 22.756001
39 1 4 0.053000 51.945000 15.578000 21.434000
40 1 4 0.053000 51.110001 13.530000 20.256001
41 1 4 0.053000 49.908001 13.262000 21.582001
42 1 4 0.053000 51.780998 13.074000 23.235001
43 1 4 0.053000 52.980999 13.331000 21.906000
44 1 4 0.053000 52.139000 11.269000 20.753000
45 1 4 0.053000 50.935001 11.025000 22.080000
46 1 4 0.053000 52.800999 10.855000 23.740000
47 1 4 0.053000 54.007000 11.075000 22.409000
48 1 4 0.053000 53.150002 8.994000 21.298000
49 1 4 0.053000 51.935001 8.792000 22.622999
50 1 4 0.053000 53.773998 8.654000 24.292000
51 1 4 0.053000 54.993000 8.832000 22.966999
52 1 4 0.053000 54.091000 6.748000 21.878000
53 1 4 0.053000 52.880001 6.583000 23.191000
54 1 4 0.053000 53.625999 4.347000 23.631001
55 1 4 0.053000 55.358002 3.995000 23.952000
56 1 4 0.053000 54.837002 4.497000 22.306999
57 1 4 0.053000 56.542000 7.468000 23.764999
58 1 4 0.053000 56.480000 6.362000 22.341999
59 1 4 0.053000 57.000000 5.758000 23.955999
60 1 4 0.053000 54.903000 7.258000 25.569000
61 1 4 0.053000 55.312000 5.542000 25.792000
62 1 4 0.053000 53.602001 6.011000 25.481001
63 1 5 -1.000000 55.951000 6.793000 25.294001
64 1 1 -0.106000 50.023998 55.500999 39.412998
65 1 1 -0.106000 49.654999 55.615002 37.931999
66 1 1 -0.106000 50.882000 55.380001 37.047001
67 1 1 -0.106000 50.518002 55.521000 35.566002
68 1 1 -0.106000 51.749001 55.316002 34.681999
69 1 1 -0.106000 51.387001 55.466000 33.202999
70 1 1 -0.106000 52.619999 55.270000 32.320000
71 1 1 -0.106000 52.258999 55.404999 30.840000
72 1 1 -0.106000 53.493999 55.191002 29.961000
73 1 1 -0.106000 53.136002 55.290001 28.476000
74 1 1 -0.106000 54.374001 55.048000 27.605000
75 1 1 0.301100 54.007999 55.113998 26.105000
76 1 2 -0.628400 55.139999 54.876999 25.158001
77 1 3 0.248100 55.730999 53.528999 25.344999
78 1 3 0.248100 56.198002 55.905998 25.311001
79 1 3 0.248100 54.604000 54.962002 23.778000
80 1 1 -0.106000 48.805000 55.769001 40.300999
81 1 1 -0.106000 49.179001 55.679001 41.783001
82 1 1 -0.106000 47.965000 55.966000 42.671001
83 1 3 -0.159000 48.337002 55.888000 44.150002
84 1 4 0.053000 47.442001 56.102001 44.770000
85 1 4 0.053000 49.123001 56.634998 44.388000
86 1 4 0.053000 48.709999 54.872002 44.398998
87 1 4 0.053000 47.162998 55.224998 42.462002
88 1 4 0.053000 47.575001 56.985001 42.453999
89 1 4 0.053000 49.977001 56.422001 42.004002
90 1 4 0.053000 49.566002 54.660000 42.002998
91 1 4 0.053000 48.009998 55.023998 40.071999
92 1 4 0.053000 48.412998 56.787998 40.084000
93 1 4 0.053000 50.816002 56.247002 39.650002
94 1 4 0.053000 50.417999 54.481998 39.619999
95 1 4 0.053000 49.254002 56.633999 37.733002
96 1 4 0.053000 48.870998 54.866001 37.685001
97 1 4 0.053000 51.286999 54.361000 37.234001
98 1 4 0.053000 51.665001 56.130001 37.301998
99 1 4 0.053000 50.105999 56.537998 35.384998
100 1 4 0.053000 49.743000 54.766998 35.304001
101 1 4 0.053000 52.166000 54.298000 34.859001
102 1 4 0.053000 52.522999 56.070000 34.948002
103 1 4 0.053000 50.966999 56.481998 33.027000
104 1 4 0.053000 50.617001 54.709000 32.935001
105 1 4 0.053000 53.042000 54.256001 32.501999
106 1 4 0.053000 53.388000 56.029999 32.583000
107 1 4 0.053000 51.839001 56.416000 30.648001
108 1 4 0.053000 51.490002 54.643002 30.582001
109 1 4 0.053000 53.915001 54.181999 30.167000
110 1 4 0.053000 54.261002 55.957001 30.209999
111 1 4 0.053000 52.719002 56.299000 28.260000
112 1 4 0.053000 52.363998 54.525002 28.236000
113 1 4 0.053000 54.775002 54.044998 27.857000
114 1 4 0.053000 55.130001 55.819000 27.857000
115 1 4 0.053000 53.561001 56.118000 25.910000
116 1 4 0.053000 53.208000 54.360001 25.922001
117 1 4 0.053000 53.813000 54.196999 23.607000
118 1 4 0.053000 55.403999 54.793999 23.021999
119 1 4 0.053000 54.159000 55.964001 23.580000
120 1 4 0.053000 56.701000 55.834999 26.298000
121 1 4 0.053000 55.777000 56.930000 25.202000
122 1 4 0.053000 56.993000 55.777000 24.542999
123 1 4 0.053000 56.237999 53.433998 26.327000
124 1 4 0.053000 56.505001 53.321999 24.572001
125 1 4 0.053000 54.951000 52.737999 25.271000
126 1 5 -1.000000 56.925999 54.174000 25.721001
127 1 1 -0.106000 14.018000 31.254999 49.005001
128 1 1 -0.106000 14.740000 31.976999 47.865002
129 1 1 -0.106000 15.856000 32.872002 48.409000
130 1 1 -0.106000 16.559000 33.615002 47.269001
131 1 1 -0.106000 17.656000 34.532001 47.813999
132 1 1 -0.106000 18.353001 35.280998 46.674999
133 1 1 -0.106000 19.441999 36.205002 47.222000
134 1 1 -0.106000 20.150999 36.944000 46.084999
135 1 1 -0.106000 21.250999 37.854000 46.637001
136 1 1 -0.106000 21.988001 38.573002 45.505001
137 1 1 -0.106000 23.105000 39.460999 46.066002
138 1 1 0.301100 23.872999 40.160999 44.923000
139 1 2 -0.628400 25.000000 41.044998 45.354000
140 1 3 0.248100 26.035000 40.283001 46.094002
141 1 3 0.248100 24.516001 42.166000 46.195999
142 1 3 0.248100 25.624001 41.612999 44.136002
143 1 1 -0.106000 12.879000 30.385000 48.466000
144 1 1 -0.106000 12.142000 29.681000 49.608002
145 1 1 -0.106000 10.989000 28.827000 49.070999
146 1 3 -0.159000 10.245000 28.132999 50.209000
147 1 4 0.053000 9.416000 27.523001 49.792999
148 1 4 0.053000 9.821000 28.886000 50.905998
149 1 4 0.053000 10.935000 27.464001 50.768002
150 1 4 0.053000 11.387000 28.055000 48.376999
151 1 4 0.053000 10.273000 29.471001 48.515999
152 1 4 0.053000 11.734000 30.447001 50.306000
153 1 4 0.053000 12.855000 29.034000 50.164001
154 1 4 0.053000 13.294000 29.624001 47.766998
155 1 4 0.053000 12.161000 31.028000 47.909000
156 1 4 0.053000 13.597000 32.009998 49.706001
157 1 4 0.053000 14.743000 30.618000 49.557999
158 1 4 0.053000 14.008000 32.605999 47.311001
159 1 4 0.053000 15.172000 31.229000 47.165001
160 1 4 0.053000 16.596001 32.250999 48.959999
161 1 4 0.053000 15.418000 33.616001 49.111000
162 1 4 0.053000 15.815000 34.227001 46.716000
163 1 4 0.053000 17.007999 32.875000 46.569000
164 1 4 0.053000 18.405001 33.923000 48.368000
165 1 4 0.053000 17.205000 35.268002 48.514999
166 1 4 0.053000 17.603001 35.887001 46.118999
167 1 4 0.053000 18.808001 34.544998 45.977001
168 1 4 0.053000 20.187000 35.598000 47.783001
169 1 4 0.053000 18.987000 36.945000 47.916000
170 1 4 0.053000 19.413000 37.556000 45.520000
171 1 4 0.053000 20.604000 36.200001 45.393002
172 1 4 0.053000 21.976999 37.237000 47.210999
173 1 4 0.053000 20.799000 38.605999 47.321999
174 1 4 0.053000 21.270000 39.198002 44.929001
175 1 4 0.053000 22.431999 37.816002 44.820999
176 1 4 0.053000 23.792999 38.813000 46.648998
177 1 4 0.053000 22.645000 40.209000 46.743000
178 1 4 0.053000 23.136000 40.757000 44.334999
179 1 4 0.053000 24.264999 39.367001 44.245998
180 1 4 0.053000 26.018999 40.808998 43.473999
181 1 4 0.053000 26.475000 42.285000 44.391998
182 1 4 0.053000 24.889999 42.209999 43.548000
183 1 4 0.053000 24.114000 41.808998 47.167000
184 1 4 0.053000 23.716999 42.741001 45.674999
185 1 4 0.053000 25.344000 42.869999 46.437000
186 1 4 0.053000 25.656000 39.911999 47.069000
187 1 4 0.053000 26.915001 40.924000 46.325001
188 1 4 0.053000 26.391001 39.411999 45.499001
189 1 5 -1.000000 25.730000 41.080002 47.216000
190 2 3 -0.159000 25.864000 25.468000 35.441002
191 2 1 -0.106000 24.983999 26.018000 34.324001
192 2 1 -0.106000 23.716000 26.673000 34.884998
193 2 1 -0.106000 22.848000 27.218000 33.743000
194 2 1 -0.106000 21.582001 27.941999 34.220001
195 2 1 -0.106000 20.584999 27.028999 34.955002
196 2 1 -0.106000 19.287001 27.790001 35.242001
197 2 1 -0.106000 18.223000 26.902000 35.908001
198 2 1 -0.106000 16.895000 27.666000 35.983002
199 2 1 -0.106000 15.728000 26.805000 36.504002
200 2 1 -0.106000 14.406000 27.545000 36.245998
201 2 1 0.301100 13.147000 26.691999 36.549000
202 2 2 -0.628400 11.857000 27.242001 35.993000
203 2 3 0.248100 11.557000 28.549000 36.632000
204 2 3 0.248100 10.756000 26.312000 36.342999
205 2 1 0.301100 11.899000 27.445999 34.502998
206 2 1 -0.106000 12.093000 26.149000 33.664001
207 2 1 -0.106000 12.772000 26.368999 32.296001
208 2 1 -0.106000 14.261000 26.730000 32.490002
209 2 1 -0.106000 15.098000 26.674999 31.208000
210 2 1 -0.106000 16.577999 26.885000 31.572001
211 2 1 -0.106000 17.511999 26.739000 30.367001
212 2 1 -0.106000 18.975000 26.837999 30.823999
213 2 1 -0.106000 19.948999 26.636999 29.658001
214 2 1 -0.106000 21.400000 26.664000 30.157000
215 2 1 -0.106000 22.389000 26.443001 29.010000
216 2 3 -0.159000 23.827999 26.447001 29.518999
217 2 4 0.053000 26.771999 25.002001 35.001999
218 2 4 0.053000 25.313999 24.695999 36.021000
219 2 4 0.053000 26.177999 26.285999 36.124001
220 2 4 0.053000 24.705000 25.184999 33.644001
221 2 4 0.053000 25.566999 26.768000 33.744999
222 2 4 0.053000 24.000000 27.509001 35.561001
223 2 4 0.053000 23.146999 25.915001 35.464001
224 2 4 0.053000 22.561001 26.386999 33.063999
225 2 4 0.053000 23.452000 27.948000 33.159000
226 2 4 0.053000 21.083000 28.344999 33.310001
227 2 4 0.053000 21.858000 28.802000 34.869999
228 2 4 0.053000 21.020000 26.660999 35.908001
229 2 4 0.053000 20.350000 26.159000 34.303001
230 2 4 0.053000 18.888000 28.148001 34.264999
231 2 4 0.053000 19.492001 28.673000 35.886002
232 2 4 0.053000 18.555000 26.583000 36.918999
233 2 4 0.053000 18.070000 26.000000 35.276001
234 2 4 0.053000 16.656000 27.976999 34.941002
235 2 4 0.053000 16.997999 28.580999 36.605999
236 2 4 0.053000 15.860000 26.556999 37.577999
237 2 4 0.053000 15.706000 25.860001 35.917999
238 2 4 0.053000 14.441000 27.768000 35.174999
239 2 4 0.053000 14.382000 28.504000 36.805000
240 2 4 0.053000 13.078000 26.562000 37.653000
241 2 4 0.053000 13.321000 25.673000 36.155998
242 2 4 0.053000 12.668000 28.193001 34.254002
243 2 4 0.053000 10.970000 27.938000 34.132000
244 2 4 0.053000 11.099000 25.667999 33.537998
245 2 4 0.053000 12.726000 25.403999 34.175999
246 2 4 0.053000 12.239000 27.127001 31.683001
247 2 4 0.053000 12.732000 25.395000 31.761999
248 2 4 0.053000 14.699000 25.983999 33.191002
249 2 4 0.053000 14.365000 27.740000 32.930000
250 2 4 0.053000 14.754000 27.445999 30.485001
251 2 4 0.053000 14.984000 25.669001 30.747000
252 2 4 0.053000 16.865000 26.115000 32.321999
253 2 4 0.053000 16.715000 27.889999 32.030998
254 2 4 0.053000 17.287001 27.527000 29.615000
255 2 4 0.053000 17.349001 25.742001 29.902000
256 2 4 0.053000 19.165001 26.047001 31.584999
257 2 4 0.053000 19.156000 27.830000 31.292000
258 2 4 0.053000 19.794001 27.437000 28.902000
259 2 4 0.053000 19.750999 25.650000 29.183001
260 2 4 0.053000 21.535000 25.856001 30.909000
261 2 4 0.053000 21.607000 27.643999 30.641001
262 2 4 0.053000 22.271000 27.249001 28.253000
263 2 4 0.053000 22.184999 25.464001 28.523001
264 2 4 0.053000 24.066999 27.421000 29.996000
265 2 4 0.053000 24.525000 26.283001 28.671000
266 2 4 0.053000 23.976000 25.632999 30.261999
267 2 4 0.053000 10.655000 26.205999 37.446999
268 2 4 0.053000 10.937000 25.292999 35.936001
269 2 4 0.053000 9.782000 26.671000 35.943001
270 2 4 0.053000 11.535000 28.459000 37.741001
271 2 4 0.053000 10.567000 28.938000 36.303001
272 2 4 0.053000 12.309000 29.320000 36.362999
273 2 5 -1.000000 11.283000 27.988001 37.757000
274 1 1 -0.106000 10.425000 13.292000 -55.071999
275 1 1 -0.106000 9.666000 12.023000 -54.678001
276 1 1 -0.106000 9.475000 11.954000 -53.160000
277 1 1 -0.106000 8.739000 10.670000 -52.764999
278 1 1 -0.106000 8.573000 10.585000 -51.245998
279 1 1 -0.106000 7.846000 9.298000 -50.851002
280 1 1 -0.106000 7.689000 9.209000 -49.332001
281 1 1 -0.106000 6.949000 7.930000 -48.933998
282 1 1 -0.106000 6.781000 7.856000 -47.415001
283 1 1 -0.106000 6.012000 6.596000 -47.008999
284 1 1 -0.106000 5.825000 6.544000 -45.487999
285 1 1 0.301100 5.019000 5.291000 -45.078999
286 1 2 -0.628400 4.762000 5.144000 -43.612000
287 1 3 0.248100 3.981000 6.287000 -43.082001
288 1 3 0.248100 6.029000 5.016000 -42.852001
289 1 3 0.248100 3.971000 3.907000 -43.410999
290 1 1 -0.106000 10.648000 13.347000 -56.585999
291 1 1 -0.106000 11.428000 14.605000 -56.978001
292 1 1 -0.106000 11.668000 14.651000 -58.490002
293 1 3 -0.159000 12.455000 15.898000 -58.882999
294 1 4 0.053000 12.617000 15.905000 -59.980999
295 1 4 0.053000 13.444000 15.904000 -58.375999
296 1 4 0.053000 11.893000 16.813000 -58.598000
297 1 4 0.053000 10.693000 14.657000 -59.025002
298 1 4 0.053000 12.241000 13.752000 -58.805000
299 1 4 0.053000 12.409000 14.605000 -56.452999
300 1 4 0.053000 10.855000 15.506000 -56.666000
301 1 4 0.053000 9.662000 13.345000 -57.104000
302 1 4 0.053000 11.221000 12.448000 -56.903999
303 1 4 0.053000 11.414000 13.300000 -54.560001
304 1 4 0.053000 9.847000 14.186000 -54.748001
305 1 4 0.053000 10.245000 11.134000 -55.012001
306 1 4 0.053000 8.673000 12.013000 -55.178001
307 1 4 0.053000 8.892000 12.836000 -52.817001
308 1 4 0.053000 10.472000 11.968000 -52.666000
309 1 4 0.053000 9.321000 9.790000 -53.117001
310 1 4 0.053000 7.737000 10.656000 -53.250000
311 1 4 0.053000 7.990000 11.464000 -50.889000
312 1 4 0.053000 9.576000 10.602000 -50.765999
313 1 4 0.053000 8.427000 8.420000 -51.212002
314 1 4 0.053000 6.841000 9.283000 -51.327999
315 1 4 0.053000 7.114000 10.091000 -48.973000
316 1 4 0.053000 8.694000 9.218000 -48.855000
317 1 4 0.053000 7.520000 7.044000 -49.287998
318 1 4 0.053000 5.946000 7.925000 -49.415001
319 1 4 0.053000 6.220000 8.752000 -47.068001
320 1 4 0.053000 7.783000 7.851000 -46.931999
321 1 4 0.053000 6.569000 5.694000 -47.346001
322 1 4 0.053000 5.014000 6.605000 -47.500000
323 1 4 0.053000 5.285000 7.464000 -45.181000
324 1 4 0.053000 6.829000 6.535000 -45.015999
325 1 4 0.053000 5.572000 4.397000 -45.452000
326 1 4 0.053000 4.047000 5.325000 -45.623001
327 1 4 0.053000 3.000000 3.958000 -43.952999
328 1 4 0.053000 3.747000 3.740000 -42.334000
329 1 4 0.053000 4.522000 3.012000 -43.782001
330 1 4 0.053000 6.630000 5.949000 -42.891998
331 1 4 0.053000 6.650000 4.181000 -43.247002
332 1 4 0.053000 5.829000 4.816000 -41.775002
333 1 4 0.053000 4.560000 7.233000 -43.112999
334 1 4 0.053000 3.708000 6.123000 -42.014999
335 1 4 0.053000 3.040000 6.429000 -43.659000
336 1 5 -1.000000 5.097000 6.597000 -42.278999
337 1 1 -0.106000 8.985000 21.455000 -14.946000
338 1 1 -0.106000 9.465000 22.896000 -15.139000
339 1 1 -0.106000 8.779000 23.834999 -14.142000
340 1 1 -0.106000 9.240000 25.280001 -14.355000
341 1 1 -0.106000 8.534000 26.224001 -13.379000
342 1 1 -0.106000 8.988000 27.667999 -13.597000
343 1 1 -0.106000 8.274000 28.612000 -12.629000
344 1 1 -0.106000 8.736000 30.056999 -12.834000
345 1 1 -0.106000 8.030000 30.993000 -11.850000
346 1 1 -0.106000 8.511000 32.436001 -12.025000
347 1 1 -0.106000 7.819000 33.362000 -11.018000
348 1 1 0.301100 8.328000 34.812000 -11.169000
349 1 2 -0.628400 7.730000 35.804001 -10.223000
350 1 3 0.248100 8.015000 35.448002 -8.812000
351 1 3 0.248100 6.264000 35.919998 -10.417000
352 1 3 0.248100 8.342000 37.125000 -10.502000
353 1 1 -0.106000 9.644000 20.518999 -15.964000
354 1 1 -0.106000 9.146000 19.083000 -15.786000
355 1 1 -0.106000 9.790000 18.150000 -16.816999
356 1 3 -0.159000 9.287000 16.718000 -16.650000
357 1 4 0.053000 9.766000 16.065001 -17.409000
358 1 4 0.053000 8.186000 16.679001 -16.790001
359 1 4 0.053000 9.541000 16.337000 -15.638000
360 1 4 0.053000 10.895000 18.160000 -16.694000
361 1 4 0.053000 9.542000 18.497999 -17.843000
362 1 4 0.053000 8.041000 19.061001 -15.915000
363 1 4 0.053000 9.395000 18.730000 -14.761000
364 1 4 0.053000 10.749000 20.549000 -15.831000
365 1 4 0.053000 9.398000 20.868000 -16.992001
366 1 4 0.053000 7.881000 21.417999 -15.081000
367 1 4 0.053000 9.231000 21.117001 -13.915000
368 1 4 0.053000 9.223000 23.225000 -16.174000
369 1 4 0.053000 10.567000 22.943001 -14.995000
370 1 4 0.053000 9.020000 23.517000 -13.104000
371 1 4 0.053000 7.677000 23.780001 -14.288000
372 1 4 0.053000 9.005000 25.591000 -15.396000
373 1 4 0.053000 10.341000 25.341999 -14.200000
374 1 4 0.053000 8.766000 25.917000 -12.334000
375 1 4 0.053000 7.434000 26.157000 -13.534000
376 1 4 0.053000 8.758000 27.974001 -14.643000
377 1 4 0.053000 10.086000 27.736000 -13.438000
378 1 4 0.053000 8.499000 28.302000 -11.584000
379 1 4 0.053000 7.175000 28.549999 -12.792000
380 1 4 0.053000 8.511000 30.375999 -13.875000
381 1 4 0.053000 9.835000 30.114000 -12.671000
382 1 4 0.053000 8.250000 30.660000 -10.812000
383 1 4 0.053000 6.931000 30.945000 -12.018000
384 1 4 0.053000 8.290000 32.779999 -13.060000
385 1 4 0.053000 9.611000 32.474998 -11.862000
386 1 4 0.053000 8.042000 32.981998 -9.999000
387 1 4 0.053000 6.725000 33.310001 -11.195000
388 1 4 0.053000 8.130000 35.132000 -12.220000
389 1 4 0.053000 9.434000 34.796001 -11.036000
390 1 4 0.053000 9.445000 37.095001 -10.356000
391 1 4 0.053000 7.935000 37.910999 -9.826000
392 1 4 0.053000 8.144000 37.446999 -11.550000
393 1 4 0.053000 5.736000 34.983002 -10.138000
394 1 4 0.053000 6.018000 36.160000 -11.475000
395 1 4 0.053000 5.839000 36.723999 -9.774000
396 1 4 0.053000 7.500000 34.513000 -8.510000
397 1 4 0.053000 7.654000 36.241001 -8.119000
398 1 4 0.053000 9.108000 35.319000 -8.646000
399 1 5 -1.000000 6.625000 35.292999 -8.636000
400 1 1 -0.106000 7.949000 33.257000 -58.264999
401 1 1 -0.106000 8.895000 32.547001 -57.293999
402 1 1 -0.106000 9.329000 31.188999 -57.851002
403 1 1 -0.106000 10.253000 30.468000 -56.866001
404 1 1 -0.106000 10.664000 29.098000 -57.409000
405 1 1 -0.106000 11.580000 28.375000 -56.419998
406 1 1 -0.106000 11.982000 27.000999 -56.959999
407 1 1 -0.106000 12.910000 26.280001 -55.980000
408 1 1 -0.106000 13.322000 24.914000 -56.534000
409 1 1 -0.106000 14.278000 24.198999 -55.576000
410 1 1 -0.106000 14.706000 22.844000 -56.151001
411 1 1 0.301100 15.698000 22.135000 -55.202000
412 1 2 -0.628400 16.195999 20.805000 -55.671001
413 1 3 0.248100 16.922001 20.921000 -56.959000
414 1 3 0.248100 15.086000 19.832001 -55.813999
415 1 3 0.248100 17.139999 20.288000 -54.651001
416 1 1 -0.106000 7.488000 34.601002 -57.694000
417 1 1 -0.106000 6.523000 35.299999 -58.654999
418 1 1 -0.106000 6.045000 36.634998 -58.076000
419 1 3 -0.159000 5.074000 37.328999 -59.027000
420 1 4 0.053000 4.743000 38.291000 -58.583000
421 1 4 0.053000 4.183000 36.689999 -59.201000
422 1 4 0.053000 5.570000 37.536999 -59.999001
423 1 4 0.053000 6.918000 37.301998 -57.901001
424 1 4 0.053000 5.531000 36.459999 -57.105999
425 1 4 0.053000 5.643000 34.643002 -58.831001
426 1 4 0.053000 7.036000 35.479000 -59.625999
427 1 4 0.053000 8.374000 35.250999 -57.518002
428 1 4 0.053000 6.974000 34.426998 -56.722000
429 1 4 0.053000 7.059000 32.612999 -58.442001
430 1 4 0.053000 8.470000 33.423000 -59.234001
431 1 4 0.053000 8.372000 32.390999 -56.324001
432 1 4 0.053000 9.793000 33.180000 -57.118999
433 1 4 0.053000 9.858000 31.334999 -58.818001
434 1 4 0.053000 8.426000 30.562000 -58.027000
435 1 4 0.053000 9.723000 30.332001 -55.897999
436 1 4 0.053000 11.162000 31.087000 -56.694000
437 1 4 0.053000 11.196000 29.229000 -58.377998
438 1 4 0.053000 9.753000 28.483999 -57.582001
439 1 4 0.053000 11.049000 28.246000 -55.450001
440 1 4 0.053000 12.493000 28.987000 -56.250999
441 1 4 0.053000 12.507000 27.129999 -57.932999
442 1 4 0.053000 11.070000 26.386000 -57.124001
443 1 4 0.053000 12.392000 26.143999 -55.006001
444 1 4 0.053000 13.821000 26.899000 -55.818001
445 1 4 0.053000 13.828000 25.056999 -57.514000
446 1 4 0.053000 12.414000 24.289000 -56.687000
447 1 4 0.053000 13.778000 24.045000 -54.594002
448 1 4 0.053000 15.180000 24.832001 -55.422001
449 1 4 0.053000 15.184000 23.028999 -57.134998
450 1 4 0.053000 13.796000 22.226999 -56.296001
451 1 4 0.053000 15.195000 22.018000 -54.213001
452 1 4 0.053000 16.563000 22.820999 -55.048000
453 1 4 0.053000 18.002001 20.978001 -54.514999
454 1 4 0.053000 17.547001 19.294001 -54.944000
455 1 4 0.053000 16.639000 20.167999 -53.662998
456 1 4 0.053000 14.388000 20.121000 -56.629002
457 1 4 0.053000 14.506000 19.745001 -54.868999
458 1 4 0.053000 15.473000 18.822001 -56.075001
459 1 4 0.053000 16.245001 21.212000 -57.789001
460 1 4 0.053000 17.374001 19.947001 -57.251999
461 1 4 0.053000 17.739000 21.673000 -56.889999
462 1 5 -1.000000 15.918000 20.110001 -57.525002
463 1 1 -0.106000 40.152000 6.430000 -45.567001
464 1 1 -0.106000 40.693001 7.819000 -45.224998
465 1 1 -0.106000 41.463001 7.792000 -43.901001
466 1 1 -0.106000 41.980999 9.188000 -43.546001
467 1 1 -0.106000 42.723999 9.168000 -42.209000
468 1 1 -0.106000 43.234001 10.565000 -41.849998
469 1 1 -0.106000 43.969002 10.546000 -40.508999
470 1 1 -0.106000 44.493000 11.938000 -40.153000
471 1 1 -0.106000 45.242001 11.908000 -38.819000
472 1 1 -0.106000 45.799000 13.291000 -38.470001
473 1 1 -0.106000 46.570000 13.245000 -37.146000
474 1 1 0.301100 47.162998 14.631000 -36.810001
475 1 2 -0.628400 47.951000 14.701000 -35.541000
476 1 3 0.248100 49.119999 13.788000 -35.577000
477 1 3 0.248100 47.109001 14.380000 -34.362999
478 1 3 0.248100 48.451000 16.089001 -35.391998
479 1 1 -0.106000 39.353001 6.462000 -46.874001
480 1 1 -0.106000 38.791000 5.077000 -47.203999
481 1 1 -0.106000 37.974998 5.113000 -48.500999
482 1 3 -0.159000 37.403999 3.735000 -48.827000
483 1 4 0.053000 36.817001 3.790000 -49.766998
484 1 4 0.053000 36.736000 3.393000 -48.007999
485 1 4 0.053000 38.226002 3.000000 -48.959999
486 1 4 0.053000 38.623001 5.443000 -49.341999
487 1 4 0.053000 37.134998 5.833000 -48.394001
488 1 4 0.053000 38.136002 4.740000 -46.369999
489 1 4 0.053000 39.630001 4.355000 -47.313999
490 1 4 0.053000 40.014999 6.802000 -47.702000
491 1 4 0.053000 38.511002 7.183000 -46.769001
492 1 4 0.053000 39.486000 6.085000 -44.743999
493 1 4 0.053000 40.998001 5.715000 -45.666000
494 1 4 0.053000 39.841999 8.531000 -45.134998
495 1 4 0.053000 41.368000 8.167000 -46.037998
496 1 4 0.053000 42.319000 7.087000 -43.983002
497 1 4 0.053000 40.784000 7.439000 -43.091999
498 1 4 0.053000 41.122002 9.891000 -43.473999
499 1 4 0.053000 42.667999 9.541000 -44.348000
500 1 4 0.053000 43.585999 8.466000 -42.276001
501 1 4 0.053000 42.035999 8.812000 -41.410999
502 1 4 0.053000 42.373001 11.268000 -41.785999
503 1 4 0.053000 43.926998 10.919000 -42.646000
504 1 4 0.053000 44.826000 9.838000 -40.571999
505 1 4 0.053000 43.276001 10.198000 -39.712002
506 1 4 0.053000 43.641998 12.651000 -40.084999
507 1 4 0.053000 45.185001 12.282000 -40.953999
508 1 4 0.053000 46.083000 11.184000 -38.890999
509 1 4 0.053000 44.549000 11.574000 -38.014000
510 1 4 0.053000 44.964001 14.021000 -38.389999
511 1 4 0.053000 46.486000 13.621000 -39.282001
512 1 4 0.053000 47.382000 12.496000 -37.251999
513 1 4 0.053000 45.870998 12.915000 -36.349998
514 1 4 0.053000 46.318001 15.358000 -36.764999
515 1 4 0.053000 47.810001 14.935000 -37.665001
516 1 4 0.053000 49.102001 16.375000 -36.247002
517 1 4 0.053000 49.048000 16.205999 -34.459999
518 1 4 0.053000 47.608002 16.816999 -35.345001
519 1 4 0.053000 46.775002 13.320000 -34.372002
520 1 4 0.053000 46.209000 15.032000 -34.325001
521 1 4 0.053000 47.678001 14.522000 -33.416000
522 1 4 0.053000 48.810001 12.722000 -35.590000
523 1 4 0.053000 49.756001 13.918000 -34.673000
524 1 4 0.053000 49.750999 13.984000 -36.473000
525 1 5 -1.000000 48.528000 13.090000 -34.505001
526 2 3 -0.159000 35.806999 16.672001 -36.541000
527 2 1 -0.106000 36.903000 17.577000 -35.987999
528 2 1 -0.106000 36.460999 19.045000 -35.978001
529 2 1 -0.106000 37.578999 19.934000 -35.417999
530 2 1 -0.106000 37.200001 21.417999 -35.320000
531 2 1 -0.106000 36.932999 22.080000 -36.682999
532 2 1 -0.106000 36.730999 23.587999 -36.505001
533 2 1 -0.106000 36.535999 24.316000 -37.845001
534 2 1 -0.106000 36.540001 25.830999 -37.609001
535 2 1 -0.106000 36.497002 26.649000 -38.912998
536 2 1 -0.106000 36.820000 28.117001 -38.595001
537 2 1 0.301100 37.000000 29.002001 -39.855000
538 2 2 -0.628400 37.646999 30.341999 -39.605000
539 2 3 0.248100 36.773998 31.160000 -38.724998
540 2 3 0.248100 37.770000 31.056999 -40.898998
541 2 1 0.301100 38.998001 30.229000 -38.952999
542 2 1 -0.106000 40.080002 29.493999 -39.798000
543 2 1 -0.106000 41.182999 28.809000 -38.964001
544 2 1 -0.106000 40.610001 27.582001 -38.223000
545 2 1 -0.106000 41.669998 26.660000 -37.612000
546 2 1 -0.106000 40.976002 25.403000 -37.060001
547 2 1 -0.106000 41.966999 24.365000 -36.523998
548 2 1 -0.106000 41.215000 23.091000 -36.106998
549 2 1 -0.106000 42.174999 22.000999 -35.618000
550 2 1 -0.106000 41.404999 20.716999 -35.282001
551 2 1 -0.106000 42.348000 19.606001 -34.812000
552 2 3 -0.159000 41.576000 18.327000 -34.504002
553 2 4 0.053000 36.157001 15.618000 -36.533001
554 2 4 0.053000 35.562000 16.958000 -37.585999
555 2 4 0.053000 34.891998 16.747000 -35.916000
556 2 4 0.053000 37.812000 17.462999 -36.616001
557 2 4 0.053000 37.145000 17.252001 -34.952000
558 2 4 0.053000 35.553001 19.153999 -35.344002
559 2 4 0.053000 36.217999 19.353001 -37.016998
560 2 4 0.053000 38.490002 19.830000 -36.048000
561 2 4 0.053000 37.827999 19.583000 -34.391998
562 2 4 0.053000 38.060001 21.937000 -34.841000
563 2 4 0.053000 36.312000 21.540001 -34.660000
564 2 4 0.053000 36.035999 21.638000 -37.165001
565 2 4 0.053000 37.816002 21.916000 -37.339001
566 2 4 0.053000 37.645000 23.990999 -36.012001
567 2 4 0.053000 35.858002 23.785000 -35.844002
568 2 4 0.053000 35.592999 23.993000 -38.334999
569 2 4 0.053000 37.391998 24.066000 -38.509998
570 2 4 0.053000 37.495998 26.062000 -37.087002
571 2 4 0.053000 35.699001 26.131001 -36.945999
572 2 4 0.053000 35.514999 26.542999 -39.422001
573 2 4 0.053000 37.293999 26.267000 -39.589001
574 2 4 0.053000 37.771000 28.059999 -38.055000
575 2 4 0.053000 36.054001 28.545000 -37.914001
576 2 4 0.053000 36.000999 29.129000 -40.331001
577 2 4 0.053000 37.592999 28.430000 -40.592999
578 2 4 0.053000 38.891998 29.764999 -37.960999
579 2 4 0.053000 39.411999 31.232000 -38.695999
580 2 4 0.053000 40.519001 30.226999 -40.508999
581 2 4 0.053000 39.654999 28.687000 -40.418999
582 2 4 0.053000 41.681000 29.518999 -38.268002
583 2 4 0.053000 41.942001 28.438999 -39.687000
584 2 4 0.053000 40.046001 26.974001 -38.966000
585 2 4 0.053000 39.918999 27.898001 -37.418999
586 2 4 0.053000 42.230000 27.188000 -36.810001
587 2 4 0.053000 42.382000 26.353001 -38.409000
588 2 4 0.053000 40.402000 24.930000 -37.888000
589 2 4 0.053000 40.261002 25.687000 -36.256001
590 2 4 0.053000 42.525002 24.785000 -35.660000
591 2 4 0.053000 42.689999 24.106001 -37.327999
592 2 4 0.053000 40.655998 22.702999 -36.987000
593 2 4 0.053000 40.486000 23.332001 -35.301998
594 2 4 0.053000 42.721001 22.361000 -34.719002
595 2 4 0.053000 42.912998 21.777000 -36.421001
596 2 4 0.053000 40.868000 20.372000 -36.193001
597 2 4 0.053000 40.658001 20.931000 -34.485001
598 2 4 0.053000 42.886002 19.934999 -33.896000
599 2 4 0.053000 43.097000 19.389999 -35.605999
600 2 4 0.053000 40.832001 18.507000 -33.699001
601 2 4 0.053000 42.280998 17.538000 -34.167999
602 2 4 0.053000 41.048000 17.966999 -35.412998
603 2 4 0.053000 36.771999 31.221001 -41.363998
604 2 4 0.053000 38.375000 30.478001 -41.630001
605 2 4 0.053000 38.252998 32.050999 -40.766998
606 2 4 0.053000 35.750000 31.257999 -39.152000
607 2 4 0.053000 37.185001 32.186001 -38.592999
608 2 4 0.053000 36.682999 30.718000 -37.710999
609 2 5 -1.000000 35.903999 31.320999 -39.660999
610 1 1 -0.106000 41.192001 15.741000 24.306999
611 1 1 -0.106000 42.691002 15.478000 24.142000
612 1 1 -0.106000 43.099998 14.192000 24.864000
613 1 1 -0.106000 44.604000 13.945000 24.719999
614 1 1 -0.106000 45.019001 12.674000 25.466000
615 1 1 -0.106000 46.523998 12.433000 25.330000
616 1 1 -0.106000 46.938999 11.168000 26.084000
617 1 1 -0.106000 48.441002 10.915000 25.938000
618 1 1 -0.106000 48.847000 9.639000 26.680000
619 1 1 -0.106000 50.342999 9.359000 26.511999
620 1 1 -0.106000 50.734001 8.066000 27.236000
621 1 1 0.301100 52.236000 7.762000 27.039000
622 1 2 -0.628400 52.729000 6.510000 27.693001
623 1 3 0.248100 52.028999 5.313000 27.167999
624 1 3 0.248100 52.569000 6.570000 29.166000
625 1 3 0.248100 54.173000 6.375000 27.386000
626 1 1 -0.106000 40.786999 17.046000 23.614000