LAMMPS data file containing the original structures and the polarizable gold

20223 atoms
16358 bonds
25386 angles
36279 dihedrals
0 impropers

7 atom types
7 bond types
13 angle types
15 dihedral types

0.0 61.05 xlo xhi
0.0 60.4365 ylo yhi
0.0 120.0 zlo zhi

Masses

1 12.011150
2 14.006700
3 12.011150
4 1.007970
5 79.908997
6 195.960007
7 1.000000

Atoms

1 1 1 -0.106000 10.136000 51.334999 107.722000
2 1 1 -0.106000 8.948000 50.370998 107.761002
3 1 1 -0.106000 9.316000 49.028999 107.121002
4 1 1 -0.106000 8.118000 48.075001 107.136002
5 1 1 -0.106000 8.476000 46.744999 106.470001
6 1 1 -0.106000 7.276000 45.793999 106.477997
7 1 1 -0.106000 7.632000 44.469002 105.803001
8 1 1 -0.106000 6.439000 43.509998 105.821999
9 1 1 -0.106000 6.807000 42.179001 105.160004
10 1 1 -0.106000 5.630000 41.201000 105.204002
11 1 1 -0.106000 6.016000 39.862999 104.563004
12 1 1 0.301100 4.841000 38.862999 104.638000
13 1 2 -0.628400 5.111000 37.512001 104.053001
14 1 3 0.248100 6.231000 36.834000 104.750000
15 1 3 0.248100 5.411000 37.599998 102.602997
16 1 3 0.248100 3.890000 36.689999 104.226997
17 1 1 -0.106000 9.759000 52.688999 108.332001
18 1 1 -0.106000 10.940000 53.661999 108.269997
19 1 1 -0.106000 10.559000 55.021999 108.862000
20 1 3 -0.159000 11.731000 55.998001 108.792999
21 1 4 0.053000 11.427000 56.973999 109.224998
22 1 4 0.053000 12.038000 56.154999 107.737000
23 1 4 0.053000 12.594000 55.604000 109.370003
24 1 4 0.053000 10.256000 54.897999 109.925003
25 1 4 0.053000 9.703000 55.450001 108.295998
26 1 4 0.053000 11.246000 53.798000 107.209000
27 1 4 0.053000 11.797000 53.237999 108.838997
28 1 4 0.053000 9.452000 52.542999 109.391998
29 1 4 0.053000 8.902000 53.118000 107.765999
30 1 4 0.053000 10.446000 51.487999 106.664001
31 1 4 0.053000 10.988000 50.896999 108.286003
32 1 4 0.053000 8.096000 50.818001 107.203003
33 1 4 0.053000 8.638000 50.205002 108.817001
34 1 4 0.053000 10.163000 48.570999 107.676003
35 1 4 0.053000 9.629000 49.202000 106.066002
36 1 4 0.053000 7.271000 48.540001 106.587997
37 1 4 0.053000 7.808000 47.890999 108.189003
38 1 4 0.053000 9.324000 46.273998 107.016998
39 1 4 0.053000 8.788000 46.932999 105.418999
40 1 4 0.053000 6.427000 46.266998 105.933998
41 1 4 0.053000 6.967000 45.603001 107.528999
42 1 4 0.053000 8.485000 44.000999 106.343002
43 1 4 0.053000 7.936000 44.659000 104.750000
44 1 4 0.053000 5.583000 43.969002 105.280998
45 1 4 0.053000 6.138000 43.324001 106.876999
46 1 4 0.053000 7.671000 41.733002 105.698997
47 1 4 0.053000 7.099000 42.362000 104.101997
48 1 4 0.053000 4.762000 41.637001 104.662003
49 1 4 0.053000 5.340000 41.028999 106.264000
50 1 4 0.053000 6.894000 39.465000 105.112999
51 1 4 0.053000 6.301000 40.054001 103.509003
52 1 4 0.053000 3.969000 39.326000 104.119003
53 1 4 0.053000 4.562000 38.751999 105.710999
54 1 4 0.053000 3.628000 36.580002 105.303001
55 1 4 0.053000 4.028000 35.667000 103.808998
56 1 4 0.053000 3.017000 37.150002 103.708000
57 1 4 0.053000 6.367000 38.132999 102.413002
58 1 4 0.053000 4.598000 38.131001 102.058998
59 1 4 0.053000 5.521000 36.587002 102.156998
60 1 4 0.053000 7.198000 37.349998 104.575996
61 1 4 0.053000 6.361000 35.792999 104.376999
62 1 4 0.053000 6.048000 36.785999 105.846001
63 1 5 -1.000000 6.933000 36.876999 103.528000
64 1 1 -0.106000 51.091999 51.216999 105.597000
65 1 1 -0.106000 50.122002 51.964001 106.514999
66 1 1 -0.106000 48.688000 51.862999 105.986000
67 1 1 -0.106000 47.722000 52.632999 106.890999
68 1 1 -0.106000 46.292999 52.557999 106.348000
69 1 1 -0.106000 45.328999 53.334999 107.247002
70 1 1 -0.106000 43.903000 53.266998 106.697998
71 1 1 -0.106000 42.932999 54.030998 107.601997
72 1 1 -0.106000 41.506001 53.944000 107.056000
73 1 1 -0.106000 40.522999 54.678001 107.972000
74 1 1 -0.106000 39.092999 54.563000 107.431999
75 1 1 0.301100 38.094002 55.272999 108.373001
76 1 2 -0.628400 36.660000 55.212002 107.949997
77 1 3 0.248100 36.176998 53.812000 107.872002
78 1 3 0.248100 36.452999 55.880001 106.642998
79 1 3 0.248100 35.855000 55.924000 108.971001
80 1 1 -0.106000 52.532001 51.346001 106.106003
81 1 1 -0.106000 53.506001 50.618999 105.175003
82 1 1 -0.106000 54.948002 50.764000 105.671997
83 1 3 -0.159000 55.923000 50.049000 104.738998
84 1 4 0.053000 56.958000 50.172001 105.120003
85 1 4 0.053000 55.865002 50.481998 103.718002
86 1 4 0.053000 55.686001 48.966000 104.692001
87 1 4 0.053000 55.039001 50.327999 106.691002
88 1 4 0.053000 55.221001 51.840000 105.718002
89 1 4 0.053000 53.426998 51.053001 104.153000
90 1 4 0.053000 53.237000 49.541000 105.127998
91 1 4 0.053000 52.602001 50.911999 107.128998
92 1 4 0.053000 52.806999 52.423000 106.153999
93 1 4 0.053000 51.029999 51.647999 104.572998
94 1 4 0.053000 50.807999 50.143002 105.552002
95 1 4 0.053000 50.416000 53.035999 106.561996
96 1 4 0.053000 50.171001 51.532001 107.539001
97 1 4 0.053000 48.382000 50.794998 105.941002
98 1 4 0.053000 48.646000 52.292000 104.959999
99 1 4 0.053000 48.035999 53.698002 106.940002
100 1 4 0.053000 47.751999 52.201000 107.916000
101 1 4 0.053000 45.973000 51.492001 106.296997
102 1 4 0.053000 46.266998 52.987999 105.321999
103 1 4 0.053000 45.651001 54.398998 107.300003
104 1 4 0.053000 45.352001 52.901001 108.271004
105 1 4 0.053000 43.584999 52.202000 106.638000
106 1 4 0.053000 43.877998 53.705002 105.676003
107 1 4 0.053000 43.242001 55.097000 107.664001
108 1 4 0.053000 42.962002 53.589001 108.623001
109 1 4 0.053000 41.209000 52.875000 106.985001
110 1 4 0.053000 41.472000 54.394001 106.039001
111 1 4 0.053000 40.808998 55.750000 108.043999
112 1 4 0.053000 40.567001 54.227001 108.987999
113 1 4 0.053000 38.845001 53.484001 107.353996
114 1 4 0.053000 39.068001 55.016998 106.419998
115 1 4 0.053000 38.411999 56.338001 108.460999
116 1 4 0.053000 38.202000 54.814999 109.383003
117 1 4 0.053000 35.966000 55.451000 109.972000
118 1 4 0.053000 34.772999 55.915001 108.711998
119 1 4 0.053000 36.169998 56.990002 109.059998
120 1 4 0.053000 36.963001 55.339001 105.818001
121 1 4 0.053000 36.832001 56.925999 106.664001
122 1 4 0.053000 35.372002 55.910999 106.377998
123 1 4 0.053000 36.674999 53.249001 107.055000
124 1 4 0.053000 35.085999 53.777000 107.654999
125 1 4 0.053000 36.354000 53.273998 108.831001
126 1 5 -1.000000 35.986000 54.021999 106.490997
127 1 1 -0.106000 54.297001 30.730000 75.436996
128 1 1 -0.106000 53.018002 31.166000 76.153999
129 1 1 -0.106000 53.335999 32.146000 77.287003
130 1 1 -0.106000 52.057999 32.560001 78.021004
131 1 1 -0.106000 52.379002 33.516998 79.170998
132 1 1 -0.106000 51.102001 33.924000 79.911003
133 1 1 -0.106000 51.424999 34.872002 81.066002
134 1 1 -0.106000 50.148998 35.292999 81.799004
135 1 1 -0.106000 50.478001 36.255001 82.944000
136 1 1 -0.106000 49.203999 36.708000 83.663002
137 1 1 -0.106000 49.540001 37.692001 84.789001
138 1 1 0.301100 48.254002 38.176998 85.492996
139 1 2 -0.628400 48.460999 39.157001 86.603996
140 1 3 0.248100 49.118000 40.395000 86.120003
141 1 3 0.248100 49.265999 38.567001 87.702003
142 1 3 0.248100 47.130001 39.518002 87.146004
143 1 1 -0.106000 53.983002 29.723000 74.324997
144 1 1 -0.106000 55.265999 29.268999 73.623001
145 1 1 -0.106000 54.955002 28.247000 72.525002
146 1 3 -0.159000 56.233002 27.784000 71.830002
147 1 4 0.053000 55.980000 27.044001 71.042999
148 1 4 0.053000 56.917000 27.306000 72.563004
149 1 4 0.053000 56.748001 28.646999 71.358002
150 1 4 0.053000 54.278000 28.702000 71.769997
151 1 4 0.053000 54.449001 27.363001 72.970001
152 1 4 0.053000 55.946999 28.806000 74.371002
153 1 4 0.053000 55.772999 30.152000 73.175003
154 1 4 0.053000 53.299000 30.194000 73.584000
155 1 4 0.053000 53.476002 28.837000 74.768997
156 1 4 0.053000 54.984001 30.256001 76.171997
157 1 4 0.053000 54.799000 31.621000 75.000000
158 1 4 0.053000 52.515999 30.268999 76.582001
159 1 4 0.053000 52.328999 31.650000 75.427002
160 1 4 0.053000 53.833000 33.049000 76.867996
161 1 4 0.053000 54.028999 31.657000 78.008003
162 1 4 0.053000 51.560001 31.655001 78.430000
163 1 4 0.053000 51.367001 33.058998 77.305000
164 1 4 0.053000 52.876999 34.426998 78.766998
165 1 4 0.053000 53.071999 33.016998 79.883003
166 1 4 0.053000 50.602001 33.013000 80.311996
167 1 4 0.053000 50.410999 34.428001 79.199997
168 1 4 0.053000 51.931000 35.778999 80.664001
169 1 4 0.053000 52.111000 34.366001 81.780998
170 1 4 0.053000 49.639999 34.393002 82.207001
171 1 4 0.053000 49.466000 35.797001 81.081001
172 1 4 0.053000 50.998001 37.146000 82.528999
173 1 4 0.053000 51.153000 35.750000 83.668999
174 1 4 0.053000 48.680000 35.823002 84.084999
175 1 4 0.053000 48.530998 37.207001 82.930000
176 1 4 0.053000 50.077999 38.551998 84.337997
177 1 4 0.053000 50.209999 37.178001 85.508003
178 1 4 0.053000 47.722000 37.277000 85.883003
179 1 4 0.053000 47.597000 38.632999 84.716003
180 1 4 0.053000 46.488998 39.980000 86.362000
181 1 4 0.053000 47.216999 40.248001 87.982002
182 1 4 0.053000 46.597000 38.620998 87.538002
183 1 4 0.053000 50.307999 38.354000 87.379997
184 1 4 0.053000 48.811001 37.618999 88.067001
185 1 4 0.053000 49.340000 39.268002 88.563004
186 1 4 0.053000 50.160999 40.207001 85.790001
187 1 4 0.053000 49.179001 41.157001 86.929001
188 1 4 0.053000 48.553001 40.840000 85.271004
189 1 5 -1.000000 50.202999 40.074001 86.960999
190 2 3 -0.159000 28.336000 18.917999 63.818001
191 2 1 -0.106000 27.518000 19.354000 62.606998
192 2 1 -0.106000 27.457001 18.247000 61.548000
193 2 1 -0.106000 26.629999 18.709000 60.341999
194 2 1 -0.106000 26.469999 17.638000 59.254002
195 2 1 -0.106000 27.795000 17.233999 58.583000
196 2 1 -0.106000 27.523001 16.295000 57.403999
197 2 1 -0.106000 28.806000 15.918000 56.646000
198 2 1 -0.106000 28.438999 15.146000 55.373001
199 2 1 -0.106000 29.653000 14.851000 54.471001
200 2 1 -0.106000 29.153000 14.369000 53.101002
201 2 1 0.301100 30.277000 14.228000 52.042000
202 2 2 -0.628400 29.798000 14.096000 50.618000
203 2 3 0.248100 29.018999 12.840000 50.469002
204 2 3 0.248100 30.981001 13.994000 49.728001
205 2 1 0.301100 28.927999 15.243000 50.181999
206 2 1 -0.106000 29.628000 16.634001 50.166000
207 2 1 -0.106000 28.674999 17.830000 50.372002
208 2 1 -0.106000 28.159000 17.858999 51.827000
209 2 1 -0.106000 27.452999 19.160000 52.223000
210 2 1 -0.106000 27.149000 19.121000 53.730000
211 2 1 -0.106000 26.538000 20.427000 54.247002
212 2 1 -0.106000 26.375999 20.362000 55.772999
213 2 1 -0.106000 25.823000 21.673000 56.341000
214 2 1 -0.106000 25.745001 21.605000 57.873001
215 2 1 -0.106000 25.214001 22.915001 58.463001
216 2 3 -0.159000 25.164000 22.847000 59.987000
217 2 4 0.053000 28.360001 19.740999 64.565002
218 2 4 0.053000 29.379000 18.684000 63.514999
219 2 4 0.053000 27.881001 18.021999 64.290001
220 2 4 0.053000 27.982000 20.264999 62.169998
221 2 4 0.053000 26.489000 19.607000 62.943001
222 2 4 0.053000 26.989000 17.340000 61.988998
223 2 4 0.053000 28.490999 18.002001 61.226002
224 2 4 0.053000 27.094000 19.615999 59.896000
225 2 4 0.053000 25.612000 18.982000 60.695999
226 2 4 0.053000 25.801001 18.070000 58.477001
227 2 4 0.053000 25.971001 16.739000 59.678001
228 2 4 0.053000 28.466999 16.733000 59.311001
229 2 4 0.053000 28.295000 18.150000 58.199001
230 2 4 0.053000 26.841000 16.827999 56.702999
231 2 4 0.053000 27.013000 15.370000 57.757000
232 2 4 0.053000 29.483000 15.319000 57.292999
233 2 4 0.053000 29.327000 16.854000 56.347000
234 2 4 0.053000 27.737000 15.798000 54.805000
235 2 4 0.053000 27.913000 14.198000 55.622002
236 2 4 0.053000 30.336000 14.114000 54.945000
237 2 4 0.053000 30.205999 15.803000 54.312000
238 2 4 0.053000 28.459999 15.156000 52.787998
239 2 4 0.053000 28.584999 13.420000 53.206001
240 2 4 0.053000 30.910999 13.358000 52.327999
241 2 4 0.053000 30.945999 15.105000 52.133999
242 2 4 0.053000 28.016001 15.269000 50.797001
243 2 4 0.053000 28.514000 15.076000 49.160999
244 2 4 0.053000 30.181000 16.731001 49.207001
245 2 4 0.053000 30.384001 16.737000 50.963001
246 2 4 0.053000 27.841000 17.830000 49.638000
247 2 4 0.053000 29.281000 18.749001 50.214001
248 2 4 0.053000 29.042000 17.756001 52.499001
249 2 4 0.053000 27.466999 17.017000 52.014999
250 2 4 0.053000 26.521000 19.292000 51.632999
251 2 4 0.053000 28.135000 20.014999 52.020000
252 2 4 0.053000 28.104000 18.952000 54.275002
253 2 4 0.053000 26.462000 18.274000 53.956001
254 2 4 0.053000 25.554001 20.604000 53.761002
255 2 4 0.053000 27.219999 21.268999 53.995998
256 2 4 0.053000 27.372999 20.170000 56.230000
257 2 4 0.053000 25.697001 19.524000 56.042999
258 2 4 0.053000 24.813000 21.865000 55.919998
259 2 4 0.053000 26.497999 22.510000 56.053001
260 2 4 0.053000 26.764000 21.416000 58.276001
261 2 4 0.053000 25.077999 20.767000 58.173000
262 2 4 0.053000 24.191999 23.113001 58.075001
263 2 4 0.053000 25.878000 23.756001 58.165001
264 2 4 0.053000 24.492001 22.025000 60.316002
265 2 4 0.053000 24.778999 23.806999 60.390999
266 2 4 0.053000 26.181000 22.671000 60.398998
267 2 4 0.053000 31.600000 13.104000 49.983002
268 2 4 0.053000 31.639999 14.884000 49.821999
269 2 4 0.053000 30.676001 13.905000 48.660999
270 2 4 0.053000 29.611000 11.957000 50.799999
271 2 4 0.053000 28.725000 12.673000 49.409000
272 2 4 0.053000 28.080000 12.867000 51.062000
273 2 5 -1.000000 30.077000 12.116000 50.589001
274 1 1 -0.106000 38.002998 27.778000 104.776001
275 1 1 -0.106000 39.527000 27.643999 104.790001
276 1 1 -0.106000 39.945999 26.257000 105.283997
277 1 1 -0.106000 41.472000 26.132999 105.323997
278 1 1 -0.106000 41.891998 24.757000 105.846001
279 1 1 -0.106000 43.416000 24.638000 105.893997
280 1 1 -0.106000 43.834999 23.264999 106.425003
281 1 1 -0.106000 45.359001 23.136000 106.460999
282 1 1 -0.106000 45.771000 21.754999 106.975998
283 1 1 -0.106000 47.293999 21.604000 106.985001
284 1 1 -0.106000 47.695999 20.209000 107.476997
285 1 1 0.301100 49.231998 20.042000 107.453003
286 1 2 -0.628400 49.738998 18.708000 107.901001
287 1 3 0.248100 49.226002 17.615999 107.039001
288 1 3 0.248100 49.374001 18.437000 109.313004
289 1 3 0.248100 51.217999 18.726000 107.797997
290 1 1 -0.106000 37.583000 29.177000 104.314003
291 1 1 -0.106000 36.057999 29.319000 104.321999
292 1 1 -0.106000 35.638000 30.724001 103.878998
293 1 3 -0.159000 34.118999 30.872999 103.897003
294 1 4 0.053000 33.841999 31.898001 103.574997
295 1 4 0.053000 33.728001 30.702999 104.922997
296 1 4 0.053000 33.653000 30.142000 103.202003
297 1 4 0.053000 36.007000 30.919001 102.848999
298 1 4 0.053000 36.078999 31.480000 104.565002
299 1 4 0.053000 35.679001 29.132000 105.350998
300 1 4 0.053000 35.613998 28.566000 103.634003
301 1 4 0.053000 37.966999 29.357000 103.285004
302 1 4 0.053000 38.023998 29.934999 104.999001
303 1 4 0.053000 37.611000 27.603001 105.803001
304 1 4 0.053000 37.570000 27.014999 104.092003
305 1 4 0.053000 39.953999 28.415001 105.469002
306 1 4 0.053000 39.924999 27.809000 103.764999
307 1 4 0.053000 39.528000 25.479000 104.608002
308 1 4 0.053000 39.541000 26.097000 106.308998
309 1 4 0.053000 41.886002 26.917999 105.994003
310 1 4 0.053000 41.880001 26.283001 104.300003
311 1 4 0.053000 41.480000 23.968000 105.177002
312 1 4 0.053000 41.479000 24.610001 106.867996
313 1 4 0.053000 43.827999 25.429001 106.559998
314 1 4 0.053000 43.827999 24.780001 104.871002
315 1 4 0.053000 43.417000 22.475000 105.762001
316 1 4 0.053000 43.428001 23.125000 107.449997
317 1 4 0.053000 45.784000 23.921000 107.124001
318 1 4 0.053000 45.761002 23.278999 105.432999
319 1 4 0.053000 45.332001 20.976000 106.316002
320 1 4 0.053000 45.377998 21.614000 108.008003
321 1 4 0.053000 47.742001 22.377001 107.648003
322 1 4 0.053000 47.680000 21.753000 105.952003
323 1 4 0.053000 47.220001 19.462999 106.807999
324 1 4 0.053000 47.304001 20.079000 108.507004
325 1 4 0.053000 49.668999 20.843000 108.096001
326 1 4 0.053000 49.575001 20.237000 106.411003
327 1 4 0.053000 51.544998 18.913000 106.750000
328 1 4 0.053000 51.658001 17.756001 108.120003
329 1 4 0.053000 51.657001 19.524000 108.440002
330 1 4 0.053000 48.276001 18.323999 109.440002
331 1 4 0.053000 49.723000 19.256001 109.980003
332 1 4 0.053000 49.831001 17.486000 109.667000
333 1 4 0.053000 48.130001 17.485001 107.147003
334 1 4 0.053000 49.685001 16.639999 107.316002
335 1 4 0.053000 49.455002 17.812000 105.968002
336 1 5 -1.000000 48.564999 17.113001 108.178001
337 1 1 -0.106000 14.475000 23.893999 108.794998
338 1 1 -0.106000 15.880000 24.493999 108.882004
339 1 1 -0.106000 15.838000 26.009001 108.667999
340 1 1 -0.106000 17.247999 26.604000 108.727997
341 1 1 -0.106000 17.209999 28.115000 108.485001
342 1 1 -0.106000 18.620001 28.708000 108.537003
343 1 1 -0.106000 18.582001 30.216000 108.283997
344 1 1 -0.106000 19.989000 30.815001 108.348999
345 1 1 -0.106000 19.941999 32.327000 108.112000
346 1 1 -0.106000 21.341000 32.941002 108.208000
347 1 1 -0.106000 21.280001 34.458000 107.997002
348 1 1 0.301100 22.686001 35.084999 108.127998
349 1 2 -0.628400 22.746000 36.569000 107.954002
350 1 3 0.248100 21.923000 37.268002 108.971001
351 1 3 0.248100 22.302000 36.973000 106.597000
352 1 3 0.248100 24.156000 36.991001 108.126999
353 1 1 -0.106000 14.519000 22.372999 108.974998
354 1 1 -0.106000 13.116000 21.770000 108.863998
355 1 1 -0.106000 13.161000 20.247000 109.024002
356 1 3 -0.159000 11.766000 19.641001 108.903000
357 1 4 0.053000 11.827000 18.539000 109.019997
358 1 4 0.053000 11.333000 19.870001 107.905998
359 1 4 0.053000 11.100000 20.048000 109.693001
360 1 4 0.053000 13.582000 19.987000 110.019997
361 1 4 0.053000 13.812000 19.806999 108.237000
362 1 4 0.053000 12.689000 22.018999 107.866997
363 1 4 0.053000 12.464000 22.205999 109.652000
364 1 4 0.053000 14.949000 22.132000 109.973000
365 1 4 0.053000 15.170000 21.931000 108.188004
366 1 4 0.053000 14.040000 24.128000 107.796997
367 1 4 0.053000 13.830000 24.343000 109.582001
368 1 4 0.053000 16.521999 24.034000 108.098000
369 1 4 0.053000 16.318001 24.271999 109.879997
370 1 4 0.053000 15.203000 26.479000 109.450996
371 1 4 0.053000 15.395000 26.224001 107.668999
372 1 4 0.053000 17.881001 26.127001 107.949997
373 1 4 0.053000 17.691000 26.400000 109.728996
374 1 4 0.053000 16.577000 28.598000 109.263000
375 1 4 0.053000 16.764000 28.315001 107.486000
376 1 4 0.053000 19.254000 28.222000 107.761002
377 1 4 0.053000 19.063999 28.511999 109.537003
378 1 4 0.053000 17.943001 30.698999 109.055000
379 1 4 0.053000 18.143000 30.413000 107.280998
380 1 4 0.053000 20.632999 30.339001 107.578003
381 1 4 0.053000 20.424000 30.615000 109.352997
382 1 4 0.053000 19.285999 32.793999 108.878998
383 1 4 0.053000 19.516001 32.528999 107.103996
384 1 4 0.053000 22.003000 32.483002 107.441002
385 1 4 0.053000 21.761999 32.729000 109.216003
386 1 4 0.053000 20.599001 34.881001 108.764000
387 1 4 0.053000 20.858999 34.650002 106.987999
388 1 4 0.053000 23.347000 34.594002 107.375000
389 1 4 0.053000 23.080999 34.814999 109.135002
390 1 4 0.053000 24.534000 36.723000 109.139999
391 1 4 0.053000 24.267000 38.091999 108.008003
392 1 4 0.053000 24.818001 36.502998 107.375000
393 1 4 0.053000 21.224001 36.761002 106.436996
394 1 4 0.053000 22.885000 36.442001 105.811996
395 1 4 0.053000 22.434999 38.067001 106.444000
396 1 4 0.053000 20.840000 37.070000 108.832001
397 1 4 0.053000 22.049999 38.370998 108.898003
398 1 4 0.053000 22.211000 36.956001 110.000000
399 1 5 -1.000000 21.128000 37.743999 107.908997
400 1 1 -0.106000 18.445999 6.422000 47.653000
401 1 1 -0.106000 16.941000 6.288000 47.410000
402 1 1 -0.106000 16.230000 7.622000 47.654999
403 1 1 -0.106000 14.721000 7.479000 47.438000
404 1 1 -0.106000 14.006000 8.804000 47.710999
405 1 1 -0.106000 12.497000 8.659000 47.501999
406 1 1 -0.106000 11.782000 9.982000 47.785000
407 1 1 -0.106000 10.274000 9.845000 47.563000
408 1 1 -0.106000 9.567000 11.175000 47.831001
409 1 1 -0.106000 8.061000 11.057000 47.580002
410 1 1 -0.106000 7.366000 12.402000 47.824001
411 1 1 0.301100 5.852000 12.294000 47.537998
412 1 2 -0.628400 5.071000 13.555000 47.730000
413 1 3 0.248100 5.551000 14.632000 46.831001
414 1 3 0.248100 5.134000 14.021000 49.137001
415 1 3 0.248100 3.655000 13.269000 47.397999
416 1 1 -0.106000 19.155001 5.080000 47.441002
417 1 1 -0.106000 20.657000 5.209000 47.708000
418 1 1 -0.106000 21.363001 3.863000 47.515999
419 1 3 -0.159000 22.858999 3.985000 47.792000
420 1 4 0.053000 23.344999 2.998000 47.647999
421 1 4 0.053000 23.031000 4.319000 48.837002
422 1 4 0.053000 23.320999 4.715000 47.094002
423 1 4 0.053000 21.216000 3.508000 46.473000
424 1 4 0.053000 20.931000 3.111000 48.212002
425 1 4 0.053000 20.813999 5.557000 48.752998
426 1 4 0.053000 21.091999 5.958000 47.011002
427 1 4 0.053000 18.990000 4.737000 46.395000
428 1 4 0.053000 18.723000 4.326000 48.137001
429 1 4 0.053000 18.617001 6.761000 48.699001
430 1 4 0.053000 18.868000 7.179000 46.957001
431 1 4 0.053000 16.525999 5.523000 48.104000
432 1 4 0.053000 16.761000 5.958000 46.362999
433 1 4 0.053000 16.634001 8.392000 46.962002
434 1 4 0.053000 16.417000 7.948000 48.702999
435 1 4 0.053000 14.323000 6.703000 48.125999
436 1 4 0.053000 14.528000 7.162000 46.388000
437 1 4 0.053000 14.401000 9.585000 47.021999
438 1 4 0.053000 14.203000 9.119000 48.758999
439 1 4 0.053000 12.103000 7.875000 48.188000
440 1 4 0.053000 12.299000 8.349000 46.452000
441 1 4 0.053000 12.181000 10.765000 47.103001
442 1 4 0.053000 11.974000 10.289000 48.835999
443 1 4 0.053000 9.866000 9.065000 48.243000
444 1 4 0.053000 10.087000 9.536000 46.511002
445 1 4 0.053000 9.989000 11.952000 47.155998
446 1 4 0.053000 9.744000 11.482000 48.886002
447 1 4 0.053000 7.630000 10.286000 48.255001
448 1 4 0.053000 7.892000 10.745000 46.525002
449 1 4 0.053000 7.831000 13.151000 47.151001
450 1 4 0.053000 7.545000 12.696000 48.879002
451 1 4 0.053000 5.439000 11.495000 48.198002
452 1 4 0.053000 5.733000 11.942000 46.487000
453 1 4 0.053000 3.551000 12.928000 46.342999
454 1 4 0.053000 3.019000 14.173000 47.521999
455 1 4 0.053000 3.240000 12.472000 48.056999
456 1 4 0.053000 6.161000 14.336000 49.421001
457 1 4 0.053000 4.805000 13.221000 49.838001
458 1 4 0.053000 4.479000 14.907000 49.292999
459 1 4 0.053000 6.577000 14.963000 47.094002
460 1 4 0.053000 4.904000 15.535000 46.908001
461 1 4 0.053000 5.549000 14.297000 45.770000
462 1 5 -1.000000 5.914000 15.350000 47.987999
463 1 1 -0.106000 52.495998 17.966999 38.702000
464 1 1 -0.106000 53.518002 16.889999 38.331001
465 1 1 -0.106000 52.909000 15.874000 37.361000
466 1 1 -0.106000 53.924000 14.782000 37.012001
467 1 1 -0.106000 53.306999 13.750000 36.066002
468 1 1 -0.106000 54.319000 12.654000 35.723999
469 1 1 -0.106000 53.698002 11.617000 34.785999
470 1 1 -0.106000 54.710999 10.527000 34.430000
471 1 1 -0.106000 54.089001 9.503000 33.478001
472 1 1 -0.106000 55.105999 8.426000 33.090000
473 1 1 -0.106000 54.481998 7.420000 32.116001
474 1 1 0.301100 55.515999 6.352000 31.695999
475 1 2 -0.628400 55.019001 5.323000 30.730000
476 1 3 0.248100 54.576000 5.942000 29.458000
477 1 3 0.248100 53.907001 4.531000 31.309000
478 1 3 0.248100 56.140999 4.401000 30.431999
479 1 1 -0.106000 53.092999 18.966000 39.698002
480 1 1 -0.106000 52.063000 20.028999 40.088001
481 1 1 -0.106000 52.653000 21.017000 41.099998
482 1 3 -0.159000 51.625000 22.072001 41.499001
483 1 4 0.053000 52.077000 22.771999 42.233002
484 1 4 0.053000 50.740002 21.589001 41.964001
485 1 4 0.053000 51.300999 22.650000 40.606998
486 1 4 0.053000 53.537998 21.524000 40.657001
487 1 4 0.053000 52.977001 20.469000 42.012001
488 1 4 0.053000 51.175999 19.531000 40.539001
489 1 4 0.053000 51.741001 20.580999 39.178001
490 1 4 0.053000 53.980999 19.457001 39.241001
491 1 4 0.053000 53.417999 18.419001 40.612000
492 1 4 0.053000 51.606998 17.482000 39.162998
493 1 4 0.053000 52.174999 18.506001 37.783001
494 1 4 0.053000 53.841999 16.361000 39.254002
495 1 4 0.053000 54.405998 17.365999 37.860001
496 1 4 0.053000 52.587002 16.393000 36.431000
497 1 4 0.053000 52.019001 15.404000 37.835999
498 1 4 0.053000 54.249001 14.272000 37.944000
499 1 4 0.053000 54.812000 15.246000 36.527000
500 1 4 0.053000 52.980000 14.256000 35.129002
501 1 4 0.053000 52.417999 13.290000 36.551998
502 1 4 0.053000 54.647999 12.150000 36.660999
503 1 4 0.053000 55.205002 13.112000 35.233002
504 1 4 0.053000 53.363998 12.123000 33.853001
505 1 4 0.053000 52.814999 11.154000 35.278000
506 1 4 0.053000 55.049000 10.014000 35.358002
507 1 4 0.053000 55.592999 10.995000 33.938999
508 1 4 0.053000 53.743000 10.025000 32.560001
509 1 4 0.053000 53.213001 9.026000 33.971001
510 1 4 0.053000 55.452999 7.894000 34.002998
511 1 4 0.053000 55.980999 8.911000 32.604000
512 1 4 0.053000 54.130001 7.983000 31.226999
513 1 4 0.053000 53.612000 6.947000 32.617001
514 1 4 0.053000 55.879002 5.850000 32.623001
515 1 4 0.053000 56.387001 6.886000 31.250999
516 1 4 0.053000 57.000000 4.946000 29.980000
517 1 4 0.053000 55.833000 3.607000 29.715000
518 1 4 0.053000 56.504002 3.897000 31.357000
519 1 4 0.053000 53.000999 5.153000 31.475000
520 1 4 0.053000 54.202999 4.077000 32.280998
521 1 4 0.053000 53.603001 3.710000 30.622999
522 1 4 0.053000 53.672001 6.571000 29.598000
523 1 4 0.053000 54.300999 5.165000 28.709999
524 1 4 0.053000 55.381001 6.573000 29.018999
525 1 5 -1.000000 53.280998 5.470000 29.753000
526 2 3 -0.159000 20.707001 55.354000 73.627998
527 2 1 -0.106000 21.938999 55.589001 72.761002
528 2 1 -0.106000 21.563000 55.707001 71.278000
529 2 1 -0.106000 22.816999 55.942001 70.428001
530 2 1 -0.106000 22.525000 56.129002 68.932999
531 2 1 -0.106000 21.923000 54.882999 68.258003
532 2 1 -0.106000 21.823999 55.099998 66.745003
533 2 1 -0.106000 21.301001 53.855999 66.008003
534 2 1 -0.106000 21.415001 54.074001 64.495003
535 2 1 -0.106000 21.049999 52.823002 63.672001
536 2 1 -0.106000 21.492001 53.034000 62.216000
537 2 1 0.301100 21.357000 51.766998 61.334000
538 2 2 -0.628400 22.087999 51.826000 60.015999
539 2 3 0.248100 21.509001 52.903000 59.173000
540 2 3 0.248100 21.882000 50.542000 59.301998
541 2 1 0.301100 23.561001 52.092999 60.174000
542 2 1 -0.106000 24.353001 50.993999 60.941002
543 2 1 -0.106000 25.617001 51.507000 61.662998
544 2 1 -0.106000 25.225000 52.382000 62.873001
545 2 1 -0.106000 26.381001 52.692001 63.830002
546 2 1 -0.106000 25.820000 53.416000 65.066002
547 2 1 -0.106000 26.885000 53.674999 66.136002
548 2 1 -0.106000 26.233000 54.285000 67.386002
549 2 1 -0.106000 27.254000 54.505001 68.508003
550 2 1 -0.106000 26.562000 55.043999 69.767998
551 2 1 -0.106000 27.561001 55.250999 70.908997
552 2 3 -0.159000 26.860001 55.762001 72.164001
553 2 4 0.053000 21.013000 55.273998 74.693001
554 2 4 0.053000 20.200001 54.410999 73.332001
555 2 4 0.053000 19.995001 56.201000 73.525002
556 2 4 0.053000 22.643000 54.740002 72.901001
557 2 4 0.053000 22.440001 56.522999 73.095001
558 2 4 0.053000 20.861000 56.560001 71.142998
559 2 4 0.053000 21.059000 54.770000 70.959999
560 2 4 0.053000 23.521999 55.091999 70.558998
561 2 4 0.053000 23.320000 56.866001 70.789001
562 2 4 0.053000 23.497000 56.356998 68.443001
563 2 4 0.053000 21.851000 57.001999 68.783997
564 2 4 0.053000 20.917000 54.660999 68.669998
565 2 4 0.053000 22.593000 54.014999 68.448997
566 2 4 0.053000 22.849001 55.327000 66.373001
567 2 4 0.053000 21.166000 55.969002 66.523003
568 2 4 0.053000 20.250000 53.639000 66.300003
569 2 4 0.053000 21.938999 52.987999 66.283997
570 2 4 0.053000 22.483000 54.318001 64.294998
571 2 4 0.053000 20.792000 54.936001 64.169998
572 2 4 0.053000 19.965000 52.596001 63.744999
573 2 4 0.053000 21.625000 51.960999 64.078003
574 2 4 0.053000 22.551001 53.299999 62.305000
575 2 4 0.053000 20.951000 53.893002 61.765999
576 2 4 0.053000 20.271000 51.575001 61.174999
577 2 4 0.053000 21.712000 50.900002 61.923000
578 2 4 0.053000 23.709000 53.081001 60.637001
579 2 4 0.053000 24.059000 52.223999 59.186001
580 2 4 0.053000 24.608999 50.187000 60.221001
581 2 4 0.053000 23.752001 50.514999 61.733002
582 2 4 0.053000 26.305000 52.039001 60.971001
583 2 4 0.053000 26.143000 50.608002 62.056000
584 2 4 0.053000 24.464001 51.820000 63.460999
585 2 4 0.053000 24.784000 53.339001 62.536999
586 2 4 0.053000 27.150999 53.312000 63.321999
587 2 4 0.053000 26.843000 51.735001 64.157997
588 2 4 0.053000 25.031000 52.775002 65.517998
589 2 4 0.053000 25.356001 54.381001 64.761002
590 2 4 0.053000 27.667999 54.355000 65.736000
591 2 4 0.053000 27.358000 52.708000 66.417000
592 2 4 0.053000 25.445999 53.589001 67.754997
593 2 4 0.053000 25.754000 55.254002 67.124001
594 2 4 0.053000 28.031000 55.223999 68.167999
595 2 4 0.053000 27.743000 53.535999 68.752998
596 2 4 0.053000 25.790001 54.312000 70.093002
597 2 4 0.053000 26.063999 56.009998 69.531998
598 2 4 0.053000 28.334999 55.987999 70.599998
599 2 4 0.053000 28.062000 54.286999 71.147003
600 2 4 0.053000 26.365000 56.736000 71.961998
601 2 4 0.053000 27.604000 55.902000 72.975998
602 2 4 0.053000 26.096001 55.029999 72.504997
603 2 4 0.053000 20.802000 50.361000 59.105000
604 2 4 0.053000 22.252001 49.679001 59.898998
605 2 4 0.053000 22.415001 50.534000 58.325001
606 2 4 0.053000 20.412001 52.764999 59.041000
607 2 4 0.053000 21.973000 52.914001 58.160999
608 2 4 0.053000 21.680000 53.907001 59.615002
609 2 5 -1.000000 20.426001 52.234001 58.981998
610 1 1 -0.106000 22.341000 33.386002 102.083000
611 1 1 -0.106000 23.476999 32.869999 102.969002
612 1 1 -0.106000 24.606001 33.901001 103.061996
613 1 1 -0.106000 25.754000 33.372002 103.926003
614 1 1 -0.106000 26.895000 34.389000 103.996002
615 1 1 -0.106000 28.045000 33.855999 104.852997
616 1 1 -0.106000 29.188999 34.869999 104.913002
617 1 1 -0.106000 30.336000 34.347000 105.780998
618 1 1 -0.106000 31.469000 35.373001 105.851997
619 1 1 -0.106000 32.608002 34.873001 106.745003
620 1 1 -0.106000 33.726002 35.917999 106.831001
621 1 1 0.301100 34.860001 35.430000 107.760002
622 1 2 -0.628400 36.001999 36.380001 107.931000
623 1 3 0.248100 35.556000 37.665001 108.521004
624 1 3 0.248100 36.687000 36.639999 106.640999
625 1 3 0.248100 36.977001 35.757000 108.858002
626 1 1 -0.106000 21.226999 32.341999 101.961998