LAMMPS 2005 data file for finalStructure

  12760 atoms
  12368 bonds
  24336 angles
  34704 dihedrals
      0 impropers

   5 atom types
   6 bond types
  13 angle types
  15 dihedral types

     0.000000000   149.179000854 xlo xhi
    -2.452249527    56.176151276 ylo yhi
    -1.911314130    63.354358673 zlo zhi

Masses

   1  12.011150
   2  14.006700
   3  12.011150
   4   1.007970
   5  79.908997

Atoms

      1      0   1 -0.106000     5.942773342    -0.636445224    -0.043315321
      2      0   1 -0.106000     7.198320866     0.225976691    -0.170580178
      3      0   1 -0.106000     8.462641716    -0.621926546    -0.025728762
      4      0   1 -0.106000     9.717575073     0.246522605    -0.126050144
      5      0   1 -0.106000    10.981189728    -0.595353365     0.047738463
      6      0   1 -0.106000    12.234652519     0.274027675    -0.043659747
      7      0   1 -0.106000    13.496747971    -0.566916585     0.140048742
      8      0   1 -0.106000    14.753218651     0.296624064     0.034803033
      9      0   1 -0.106000    16.012624741    -0.553516626     0.202405095
     10      0   1 -0.106000    17.276418686     0.296417713     0.065528691
     11      0   1 -0.106000    18.531862259    -0.568015099     0.207975328
     12      0   1  0.301100    19.808336258     0.281610489     0.035717845
     13      0   2 -0.628400    21.099142075    -0.463951588     0.140826166
     14      0   3  0.248100    21.202703476    -1.511413693    -0.897330761
     15      0   3  0.248100    21.260595322    -1.074821115     1.478825927
     16      0   3  0.248100    22.203462601     0.499596894    -0.064294577
     17      0   1 -0.106000     4.676643848     0.215434551    -0.154285371
     18      0   1 -0.106000     3.420806885    -0.643942654    -0.003059000
     19      0   1 -0.106000     2.154633999     0.209987834    -0.094052032
     20      0   3 -0.159000     0.900891244    -0.642243445     0.067259789
     21      0   4  0.053000     0.000000000     0.000000000     0.000000000
     22      0   4  0.053000     0.905186296    -1.145155072     1.054418564
     23      0   4  0.053000     0.852317274    -1.406085610    -0.733126819
     24      0   4  0.053000     2.117753267     0.718858242    -1.078708410
     25      0   4  0.053000     2.166879177     0.978545487     0.704669595
     26      0   4  0.053000     3.445568800    -1.152566791     0.983039796
     27      0   4  0.053000     3.404556751    -1.411755323    -0.802963138
     28      0   4  0.053000     4.661071301     0.722631335    -1.141960859
     29      0   4  0.053000     4.687767506     0.985918164     0.644384861
     30      0   4  0.053000     5.950369835    -1.144140720     0.943994641
     31      0   4  0.053000     5.941603184    -1.405311465    -0.842528462
     32      0   4  0.053000     7.189363956     0.998196244     0.626170874
     33      0   4  0.053000     7.203092098     0.729449272    -1.159321189
     34      0   4  0.053000     8.483564377    -1.393398046    -0.821931362
     35      0   4  0.053000     8.449849129    -1.125897646     0.963643789
     36      0   4  0.053000     9.688611984     1.021472335     0.665788293
     37      0   4  0.053000     9.739851952     0.745089769    -1.117984772
     38      0   4  0.053000    11.015325546    -1.372973919    -0.743862748
     39      0   4  0.053000    10.953973770    -1.094232082     1.038447857
     40      0   4  0.053000    12.198490143     1.053511858     0.745850801
     41      0   4  0.053000    12.264204025     0.769054472    -1.036260009
     42      0   4  0.053000    13.527930260    -1.349694967    -0.645694256
     43      0   4  0.053000    13.470843315    -1.057717562     1.134814024
     44      0   4  0.053000    14.731102943     1.079963326     0.818963647
     45      0   4  0.053000    14.774248123     0.786119401    -0.961184502
     46      0   4  0.053000    16.020801544    -1.341705084    -0.577399492
     47      0   4  0.053000    15.999059677    -1.036548495     1.201731682
     48      0   4  0.053000    17.279272079     1.084297419     0.845838785
     49      0   4  0.053000    17.279844284     0.780814409    -0.933263600
     50      0   4  0.053000    18.489631653    -1.353354812    -0.570143640
     51      0   4  0.053000    18.511646271    -1.041479468     1.207996130
     52      0   4  0.053000    19.781637192     1.086571693     0.802686274
     53      0   4  0.053000    19.748813629     0.775067031    -0.958966672
     54      0   4  0.053000    22.136135101     0.977580428    -1.064331532
     55      0   4  0.053000    23.196500778     0.002829194     0.003192425
     56      0   4  0.053000    22.179866791     1.303750992     0.701817036
     57      0   4  0.053000    20.511064529    -1.871594787     1.658250570
     58      0   4  0.053000    21.159875870    -0.314300418     2.280362129
     59      0   4  0.053000    22.260734558    -1.550088644     1.580602646
     60      0   4  0.053000    20.460897446    -2.318748474    -0.740527809
     61      0   4  0.053000    22.204065323    -1.994821310    -0.876412868
     62      0   4  0.053000    21.049032211    -1.085764647    -1.911314130
     63      0   5 -1.000000    21.223901749    -2.452249527     0.146543801
     64      0   1 -0.106000    31.139274597    -0.636445224    -0.043315321
     65      0   1 -0.106000    32.394821167     0.225976691    -0.170580178
     66      0   1 -0.106000    33.659141541    -0.621926546    -0.025728762
     67      0   1 -0.106000    34.914077759     0.246522605    -0.126050144
     68      0   1 -0.106000    36.177688599    -0.595353365     0.047738463
     69      0   1 -0.106000    37.431152344     0.274027675    -0.043659747
     70      0   1 -0.106000    38.693248749    -0.566916585     0.140048742
     71      0   1 -0.106000    39.949718475     0.296624064     0.034803033
     72      0   1 -0.106000    41.209125519    -0.553516626     0.202405095
     73      0   1 -0.106000    42.472919464     0.296417713     0.065528691
     74      0   1 -0.106000    43.728363037    -0.568015099     0.207975328
     75      0   1  0.301100    45.004837036     0.281610489     0.035717845
     76      0   2 -0.628400    46.295642853    -0.463951588     0.140826166
     77      0   3  0.248100    46.399204254    -1.511413693    -0.897330761
     78      0   3  0.248100    46.457096100    -1.074821115     1.478825927
     79      0   3  0.248100    47.399963379     0.499596894    -0.064294577
     80      0   1 -0.106000    29.873144150     0.215434551    -0.154285371
     81      0   1 -0.106000    28.617307663    -0.643942654    -0.003059000
     82      0   1 -0.106000    27.351135254     0.209987834    -0.094052032
     83      0   3 -0.159000    26.097391129    -0.642243445     0.067259789
     84      0   4  0.053000    25.196500778     0.000000000     0.000000000
     85      0   4  0.053000    26.101686478    -1.145155072     1.054418564
     86      0   4  0.053000    26.048818588    -1.406085610    -0.733126819
     87      0   4  0.053000    27.314254761     0.718858242    -1.078708410
     88      0   4  0.053000    27.363380432     0.978545487     0.704669595
     89      0   4  0.053000    28.642068863    -1.152566791     0.983039796
     90      0   4  0.053000    28.601057053    -1.411755323    -0.802963138
     91      0   4  0.053000    29.857572556     0.722631335    -1.141960859
     92      0   4  0.053000    29.884267807     0.985918164     0.644384861
     93      0   4  0.053000    31.146869659    -1.144140720     0.943994641
     94      0   4  0.053000    31.138103485    -1.405311465    -0.842528462
     95      0   4  0.053000    32.385864258     0.998196244     0.626170874
     96      0   4  0.053000    32.399593353     0.729449272    -1.159321189
     97      0   4  0.053000    33.680065155    -1.393398046    -0.821931362
     98      0   4  0.053000    33.646350861    -1.125897646     0.963643789
     99      0   4  0.053000    34.885112762     1.021472335     0.665788293
    100      0   4  0.053000    34.936351776     0.745089769    -1.117984772
    101      0   4  0.053000    36.211826324    -1.372973919    -0.743862748
    102      0   4  0.053000    36.150474548    -1.094232082     1.038447857
    103      0   4  0.053000    37.394989014     1.053511858     0.745850801
    104      0   4  0.053000    37.460704803     0.769054472    -1.036260009
    105      0   4  0.053000    38.724430084    -1.349694967    -0.645694256
    106      0   4  0.053000    38.667343140    -1.057717562     1.134814024
    107      0   4  0.053000    39.927604675     1.079963326     0.818963647
    108      0   4  0.053000    39.970748901     0.786119401    -0.961184502
    109      0   4  0.053000    41.217300415    -1.341705084    -0.577399492
    110      0   4  0.053000    41.195560455    -1.036548495     1.201731682
    111      0   4  0.053000    42.475772858     1.084297419     0.845838785
    112      0   4  0.053000    42.476345062     0.780814409    -0.933263600
    113      0   4  0.053000    43.686134338    -1.353354812    -0.570143640
    114      0   4  0.053000    43.708145142    -1.041479468     1.207996130
    115      0   4  0.053000    44.978137970     1.086571693     0.802686274
    116      0   4  0.053000    44.945312500     0.775067031    -0.958966672
    117      0   4  0.053000    47.332633972     0.977580428    -1.064331532
    118      0   4  0.053000    48.393001556     0.002829194     0.003192425
    119      0   4  0.053000    47.376365662     1.303750992     0.701817036
    120      0   4  0.053000    45.707565308    -1.871594787     1.658250570
    121      0   4  0.053000    46.356376648    -0.314300418     2.280362129
    122      0   4  0.053000    47.457237244    -1.550088644     1.580602646
    123      0   4  0.053000    45.657398224    -2.318748474    -0.740527809
    124      0   4  0.053000    47.400566101    -1.994821310    -0.876412868
    125      0   4  0.053000    46.245532990    -1.085764647    -1.911314130
    126      0   5 -1.000000    46.420402527    -2.452249527     0.146543801
    127      0   1 -0.106000    56.335773468    -0.636445224    -0.043315321
    128      0   1 -0.106000    57.591323853     0.225976691    -0.170580178
    129      0   1 -0.106000    58.855644226    -0.621926546    -0.025728762
    130      0   1 -0.106000    60.110576630     0.246522605    -0.126050144
    131      0   1 -0.106000    61.374191284    -0.595353365     0.047738463
    132      0   1 -0.106000    62.627655029     0.274027675    -0.043659747
    133      0   1 -0.106000    63.889747620    -0.566916585     0.140048742
    134      0   1 -0.106000    65.146217346     0.296624064     0.034803033
    135      0   1 -0.106000    66.405624390    -0.553516626     0.202405095
    136      0   1 -0.106000    67.669418335     0.296417713     0.065528691
    137      0   1 -0.106000    68.924865723    -0.568015099     0.207975328
    138      0   1  0.301100    70.201339722     0.281610489     0.035717845
    139      0   2 -0.628400    71.492141724    -0.463951588     0.140826166
    140      0   3  0.248100    71.595703125    -1.511413693    -0.897330761
    141      0   3  0.248100    71.653594971    -1.074821115     1.478825927
    142      0   3  0.248100    72.596466064     0.499596894    -0.064294577
    143      0   1 -0.106000    55.069644928     0.215434551    -0.154285371
    144      0   1 -0.106000    53.813808441    -0.643942654    -0.003059000
    145      0   1 -0.106000    52.547634125     0.209987834    -0.094052032
    146      0   3 -0.159000    51.293891907    -0.642243445     0.067259789
    147      0   4  0.053000    50.393001556     0.000000000     0.000000000
    148      0   4  0.053000    51.298187256    -1.145155072     1.054418564
    149      0   4  0.053000    51.245319366    -1.406085610    -0.733126819
    150      0   4  0.053000    52.510753632     0.718858242    -1.078708410
    151      0   4  0.053000    52.559879303     0.978545487     0.704669595
    152      0   4  0.053000    53.838569641    -1.152566791     0.983039796
    153      0   4  0.053000    53.797557831    -1.411755323    -0.802963138
    154      0   4  0.053000    55.054073334     0.722631335    -1.141960859
    155      0   4  0.053000    55.080768585     0.985918164     0.644384861
    156      0   4  0.053000    56.343372345    -1.144140720     0.943994641
    157      0   4  0.053000    56.334606171    -1.405311465    -0.842528462
    158      0   4  0.053000    57.582366943     0.998196244     0.626170874
    159      0   4  0.053000    57.596092224     0.729449272    -1.159321189
    160      0   4  0.053000    58.876564026    -1.393398046    -0.821931362
    161      0   4  0.053000    58.842849731    -1.125897646     0.963643789
    162      0   4  0.053000    60.081611633     1.021472335     0.665788293
    163      0   4  0.053000    60.132854462     0.745089769    -1.117984772
    164      0   4  0.053000    61.408325195    -1.372973919    -0.743862748
    165      0   4  0.053000    61.346977234    -1.094232082     1.038447857
    166      0   4  0.053000    62.591491699     1.053511858     0.745850801
    167      0   4  0.053000    62.657203674     0.769054472    -1.036260009
    168      0   4  0.053000    63.920932770    -1.349694967    -0.645694256
    169      0   4  0.053000    63.863845825    -1.057717562     1.134814024
    170      0   4  0.053000    65.124107361     1.079963326     0.818963647
    171      0   4  0.053000    65.167251587     0.786119401    -0.961184502
    172      0   4  0.053000    66.413803101    -1.341705084    -0.577399492
    173      0   4  0.053000    66.392059326    -1.036548495     1.201731682
    174      0   4  0.053000    67.672271729     1.084297419     0.845838785
    175      0   4  0.053000    67.672843933     0.780814409    -0.933263600
    176      0   4  0.053000    68.882629395    -1.353354812    -0.570143640
    177      0   4  0.053000    68.904647827    -1.041479468     1.207996130
    178      0   4  0.053000    70.174636841     1.086571693     0.802686274
    179      0   4  0.053000    70.141815186     0.775067031    -0.958966672
    180      0   4  0.053000    72.529136658     0.977580428    -1.064331532
    181      0   4  0.053000    73.589500427     0.002829194     0.003192425
    182      0   4  0.053000    72.572868347     1.303750992     0.701817036
    183      0   4  0.053000    70.904067993    -1.871594787     1.658250570
    184      0   4  0.053000    71.552879333    -0.314300418     2.280362129
    185      0   4  0.053000    72.653732300    -1.550088644     1.580602646
    186      0   4  0.053000    70.853897095    -2.318748474    -0.740527809
    187      0   4  0.053000    72.597068787    -1.994821310    -0.876412868
    188      0   4  0.053000    71.442031860    -1.085764647    -1.911314130
    189      0   5 -1.000000    71.616905212    -2.452249527     0.146543801
    190      0   1 -0.106000    81.532272339    -0.636445224    -0.043315321
    191      0   1 -0.106000    82.787818909     0.225976691    -0.170580178
    192      0   1 -0.106000    84.052139282    -0.621926546    -0.025728762
    193      0   1 -0.106000    85.307075500     0.246522605    -0.126050144
    194      0   1 -0.106000    86.570693970    -0.595353365     0.047738463
    195      0   1 -0.106000    87.824150085     0.274027675    -0.043659747
    196      0   1 -0.106000    89.086250305    -0.566916585     0.140048742
    197      0   1 -0.106000    90.342720032     0.296624064     0.034803033
    198      0   1 -0.106000    91.602127075    -0.553516626     0.202405095
    199      0   1 -0.106000    92.865921021     0.296417713     0.065528691
    200      0   1 -0.106000    94.121360779    -0.568015099     0.207975328
    201      0   1  0.301100    95.397834778     0.281610489     0.035717845
    202      0   2 -0.628400    96.688644409    -0.463951588     0.140826166
    203      0   3  0.248100    96.792205811    -1.511413693    -0.897330761
    204      0   3  0.248100    96.850097656    -1.074821115     1.478825927
    205      0   3  0.248100    97.792961121     0.499596894    -0.064294577
    206      0   1 -0.106000    80.266143799     0.215434551    -0.154285371
    207      0   1 -0.106000    79.010307312    -0.643942654    -0.003059000
    208      0   1 -0.106000    77.744132996     0.209987834    -0.094052032
    209      0   3 -0.159000    76.490394592    -0.642243445     0.067259789
    210      0   4  0.053000    75.589500427     0.000000000     0.000000000
    211      0   4  0.053000    76.494689941    -1.145155072     1.054418564
    212      0   4  0.053000    76.441818237    -1.406085610    -0.733126819
    213      0   4  0.053000    77.707252502     0.718858242    -1.078708410
    214      0   4  0.053000    77.756378174     0.978545487     0.704669595
    215      0   4  0.053000    79.035072327    -1.152566791     0.983039796
    216      0   4  0.053000    78.994056702    -1.411755323    -0.802963138
    217      0   4  0.053000    80.250572205     0.722631335    -1.141960859
    218      0   4  0.053000    80.277267456     0.985918164     0.644384861
    219      0   4  0.053000    81.539871216    -1.144140720     0.943994641
    220      0   4  0.053000    81.531105042    -1.405311465    -0.842528462
    221      0   4  0.053000    82.778862000     0.998196244     0.626170874
    222      0   4  0.053000    82.792594910     0.729449272    -1.159321189
    223      0   4  0.053000    84.073066711    -1.393398046    -0.821931362
    224      0   4  0.053000    84.039352417    -1.125897646     0.963643789
    225      0   4  0.053000    85.278114319     1.021472335     0.665788293
    226      0   4  0.053000    85.329353333     0.745089769    -1.117984772
    227      0   4  0.053000    86.604827881    -1.372973919    -0.743862748
    228      0   4  0.053000    86.543472290    -1.094232082     1.038447857
    229      0   4  0.053000    87.787994385     1.053511858     0.745850801
    230      0   4  0.053000    87.853706360     0.769054472    -1.036260009
    231      0   4  0.053000    89.117431641    -1.349694967    -0.645694256
    232      0   4  0.053000    89.060340881    -1.057717562     1.134814024
    233      0   4  0.053000    90.320602417     1.079963326     0.818963647
    234      0   4  0.053000    90.363746643     0.786119401    -0.961184502
    235      0   4  0.053000    91.610305786    -1.341705084    -0.577399492
    236      0   4  0.053000    91.588562012    -1.036548495     1.201731682
    237      0   4  0.053000    92.868774414     1.084297419     0.845838785
    238      0   4  0.053000    92.869346619     0.780814409    -0.933263600
    239      0   4  0.053000    94.079132080    -1.353354812    -0.570143640
    240      0   4  0.053000    94.101150513    -1.041479468     1.207996130
    241      0   4  0.053000    95.371139526     1.086571693     0.802686274
    242      0   4  0.053000    95.338317871     0.775067031    -0.958966672
    243      0   4  0.053000    97.725631714     0.977580428    -1.064331532
    244      0   4  0.053000    98.786003113     0.002829194     0.003192425
    245      0   4  0.053000    97.769363403     1.303750992     0.701817036
    246      0   4  0.053000    96.100563049    -1.871594787     1.658250570
    247      0   4  0.053000    96.749374390    -0.314300418     2.280362129
    248      0   4  0.053000    97.850234985    -1.550088644     1.580602646
    249      0   4  0.053000    96.050399780    -2.318748474    -0.740527809
    250      0   4  0.053000    97.793563843    -1.994821310    -0.876412868
    251      0   4  0.053000    96.638534546    -1.085764647    -1.911314130
    252      0   5 -1.000000    96.813400269    -2.452249527     0.146543801
    253      0   1 -0.106000   106.728775024    -0.636445224    -0.043315321
    254      0   1 -0.106000   107.984321594     0.225976691    -0.170580178
    255      0   1 -0.106000   109.248641968    -0.621926546    -0.025728762
    256      0   1 -0.106000   110.503578186     0.246522605    -0.126050144
    257      0   1 -0.106000   111.767196655    -0.595353365     0.047738463
    258      0   1 -0.106000   113.020652771     0.274027675    -0.043659747
    259      0   1 -0.106000   114.282752991    -0.566916585     0.140048742
    260      0   1 -0.106000   115.539222717     0.296624064     0.034803033
    261      0   1 -0.106000   116.798629761    -0.553516626     0.202405095
    262      0   1 -0.106000   118.062423706     0.296417713     0.065528691
    263      0   1 -0.106000   119.317863464    -0.568015099     0.207975328
    264      0   1  0.301100   120.594337463     0.281610489     0.035717845
    265      0   2 -0.628400   121.885147095    -0.463951588     0.140826166
    266      0   3  0.248100   121.988708496    -1.511413693    -0.897330761
    267      0   3  0.248100   122.046600342    -1.074821115     1.478825927
    268      0   3  0.248100   122.989463806     0.499596894    -0.064294577
    269      0   1 -0.106000   105.462646484     0.215434551    -0.154285371
    270      0   1 -0.106000   104.206809998    -0.643942654    -0.003059000
    271      0   1 -0.106000   102.940635681     0.209987834    -0.094052032
    272      0   3 -0.159000   101.686897278    -0.642243445     0.067259789
    273      0   4  0.053000   100.786003113     0.000000000     0.000000000
    274      0   4  0.053000   101.691192627    -1.145155072     1.054418564
    275      0   4  0.053000   101.638320923    -1.406085610    -0.733126819
    276      0   4  0.053000   102.903755188     0.718858242    -1.078708410
    277      0   4  0.053000   102.952880859     0.978545487     0.704669595
    278      0   4  0.053000   104.231575012    -1.152566791     0.983039796
    279      0   4  0.053000   104.190559387    -1.411755323    -0.802963138
    280      0   4  0.053000   105.447074890     0.722631335    -1.141960859
    281      0   4  0.053000   105.473770142     0.985918164     0.644384861
    282      0   4  0.053000   106.736373901    -1.144140720     0.943994641
    283      0   4  0.053000   106.727607727    -1.405311465    -0.842528462
    284      0   4  0.053000   107.975364685     0.998196244     0.626170874
    285      0   4  0.053000   107.989097595     0.729449272    -1.159321189
    286      0   4  0.053000   109.269569397    -1.393398046    -0.821931362
    287      0   4  0.053000   109.235855103    -1.125897646     0.963643789
    288      0   4  0.053000   110.474617004     1.021472335     0.665788293
    289      0   4  0.053000   110.525856018     0.745089769    -1.117984772
    290      0   4  0.053000   111.801330566    -1.372973919    -0.743862748
    291      0   4  0.053000   111.739974976    -1.094232082     1.038447857
    292      0   4  0.053000   112.984497070     1.053511858     0.745850801
    293      0   4  0.053000   113.050209045     0.769054472    -1.036260009
    294      0   4  0.053000   114.313934326    -1.349694967    -0.645694256
    295      0   4  0.053000   114.256843567    -1.057717562     1.134814024
    296      0   4  0.053000   115.517105103     1.079963326     0.818963647
    297      0   4  0.053000   115.560249329     0.786119401    -0.961184502
    298      0   4  0.053000   116.806808472    -1.341705084    -0.577399492
    299      0   4  0.053000   116.785064697    -1.036548495     1.201731682
    300      0   4  0.053000   118.065277100     1.084297419     0.845838785
    301      0   4  0.053000   118.065849304     0.780814409    -0.933263600
    302      0   4  0.053000   119.275634766    -1.353354812    -0.570143640
    303      0   4  0.053000   119.297653198    -1.041479468     1.207996130
    304      0   4  0.053000   120.567642212     1.086571693     0.802686274
    305      0   4  0.053000   120.534820557     0.775067031    -0.958966672
    306      0   4  0.053000   122.922134399     0.977580428    -1.064331532
    307      0   4  0.053000   123.982505798     0.002829194     0.003192425
    308      0   4  0.053000   122.965866089     1.303750992     0.701817036
    309      0   4  0.053000   121.297065735    -1.871594787     1.658250570
    310      0   4  0.053000   121.945877075    -0.314300418     2.280362129
    311      0   4  0.053000   123.046737671    -1.550088644     1.580602646
    312      0   4  0.053000   121.246902466    -2.318748474    -0.740527809
    313      0   4  0.053000   122.990066528    -1.994821310    -0.876412868
    314      0   4  0.053000   121.835037231    -1.085764647    -1.911314130
    315      0   5 -1.000000   122.009902954    -2.452249527     0.146543801
    316      0   1 -0.106000   131.925277710    -0.636445224    -0.043315321
    317      0   1 -0.106000   133.180831909     0.225976691    -0.170580178
    318      0   1 -0.106000   134.445144653    -0.621926546    -0.025728762
    319      0   1 -0.106000   135.700073242     0.246522605    -0.126050144
    320      0   1 -0.106000   136.963699341    -0.595353365     0.047738463
    321      0   1 -0.106000   138.217163086     0.274027675    -0.043659747
    322      0   1 -0.106000   139.479248047    -0.566916585     0.140048742
    323      0   1 -0.106000   140.735717773     0.296624064     0.034803033
    324      0   1 -0.106000   141.995132446    -0.553516626     0.202405095
    325      0   1 -0.106000   143.258926392     0.296417713     0.065528691
    326      0   1 -0.106000   144.514373779    -0.568015099     0.207975328
    327      0   1  0.301100   145.790847778     0.281610489     0.035717845
    328      0   2 -0.628400   147.081649780    -0.463951588     0.140826166
    329      0   3  0.248100   147.185211182    -1.511413693    -0.897330761
    330      0   3  0.248100   147.243103027    -1.074821115     1.478825927
    331      0   3  0.248100   148.185974121     0.499596894    -0.064294577
    332      0   1 -0.106000   130.659149170     0.215434551    -0.154285371
    333      0   1 -0.106000   129.403320312    -0.643942654    -0.003059000
    334      0   1 -0.106000   128.137145996     0.209987834    -0.094052032
    335      0   3 -0.159000   126.883399963    -0.642243445     0.067259789
    336      0   4  0.053000   125.982505798     0.000000000     0.000000000
    337      0   4  0.053000   126.887695312    -1.145155072     1.054418564
    338      0   4  0.053000   126.834823608    -1.406085610    -0.733126819
    339      0   4  0.053000   128.100265503     0.718858242    -1.078708410
    340      0   4  0.053000   128.149383545     0.978545487     0.704669595
    341      0   4  0.053000   129.428070068    -1.152566791     0.983039796
    342      0   4  0.053000   129.387069702    -1.411755323    -0.802963138
    343      0   4  0.053000   130.643569946     0.722631335    -1.141960859
    344      0   4  0.053000   130.670272827     0.985918164     0.644384861
    345      0   4  0.053000   131.932876587    -1.144140720     0.943994641
    346      0   4  0.053000   131.924102783    -1.405311465    -0.842528462
    347      0   4  0.053000   133.171875000     0.998196244     0.626170874
    348      0   4  0.053000   133.185592651     0.729449272    -1.159321189
    349      0   4  0.053000   134.466064453    -1.393398046    -0.821931362
    350      0   4  0.053000   134.432357788    -1.125897646     0.963643789
    351      0   4  0.053000   135.671112061     1.021472335     0.665788293
    352      0   4  0.053000   135.722351074     0.745089769    -1.117984772
    353      0   4  0.053000   136.997833252    -1.372973919    -0.743862748
    354      0   4  0.053000   136.936477661    -1.094232082     1.038447857
    355      0   4  0.053000   138.180999756     1.053511858     0.745850801
    356      0   4  0.053000   138.246704102     0.769054472    -1.036260009
    357      0   4  0.053000   139.510437012    -1.349694967    -0.645694256
    358      0   4  0.053000   139.453353882    -1.057717562     1.134814024
    359      0   4  0.053000   140.713607788     1.079963326     0.818963647
    360      0   4  0.053000   140.756759644     0.786119401    -0.961184502
    361      0   4  0.053000   142.003311157    -1.341705084    -0.577399492
    362      0   4  0.053000   141.981567383    -1.036548495     1.201731682
    363      0   4  0.053000   143.261779785     1.084297419     0.845838785
    364      0   4  0.053000   143.262344360     0.780814409    -0.933263600
    365      0   4  0.053000   144.472137451    -1.353354812    -0.570143640
    366      0   4  0.053000   144.494155884    -1.041479468     1.207996130
    367      0   4  0.053000   145.764144897     1.086571693     0.802686274
    368      0   4  0.053000   145.731323242     0.775067031    -0.958966672
    369      0   4  0.053000   148.118637085     0.977580428    -1.064331532
    370      0   4  0.053000   149.179000854     0.002829194     0.003192425
    371      0   4  0.053000   148.162368774     1.303750992     0.701817036
    372      0   4  0.053000   146.493576050    -1.871594787     1.658250570
    373      0   4  0.053000   147.142379761    -0.314300418     2.280362129
    374      0   4  0.053000   148.243240356    -1.550088644     1.580602646
    375      0   4  0.053000   146.443405151    -2.318748474    -0.740527809
    376      0   4  0.053000   148.186569214    -1.994821310    -0.876412868
    377      0   4  0.053000   147.031539917    -1.085764647    -1.911314130
    378      0   5 -1.000000   147.206405640    -2.452249527     0.146543801
    379      0   1 -0.106000     5.942773342     9.468288422    -0.043315321
    380      0   1 -0.106000     7.198320866    10.330710411    -0.170580178
    381      0   1 -0.106000     8.462641716     9.482807159    -0.025728762
    382      0   1 -0.106000     9.717575073    10.351256371    -0.126050144
    383      0   1 -0.106000    10.981189728     9.509380341     0.047738463
    384      0   1 -0.106000    12.234652519    10.378761292    -0.043659747