ITEM: TIMESTEP
150000
ITEM: NUMBER OF ATOMS
12760
ITEM: BOX BOUNDS pp pp pp
5.4433552674113928e-02 1.4912456730132590e+02
-2.4308567564019956e+00 5.6154758505401993e+01
-1.8874995018150953e+00 6.3330544044815099e+01
ITEM: ATOMS id type x y z xs ys zs ix iy iz vx vy vz fx fy fz
1 1 8.3949 3.6855 0.952105 0.0559499 0.1044 0.0435402 0 0 0 -0.00427513 0.00709136 0.00822517 -32.2009 56.5627 53.3374
2 1 9.49148 4.68514 1.14893 0.0633061 0.121463 0.0465581 0 0 0 0.0021466 -0.00334507 -0.00592841 10.4255 -28.7103 -62.6363
3 1 10.6482 4.13935 1.91333 0.0710656 0.112147 0.0582788 0 0 0 0.000373989 0.000398683 -0.00308176 27.74 45.4187 74.6374
4 1 11.9531 4.0711 1.20996 0.0798192 0.110982 0.0474939 0 0 0 -0.00185378 -0.00112055 -0.00157086 12.288 7.21093 -75.8065
5 1 12.9566 3.48213 2.14129 0.0865507 0.100929 0.0617742 0 0 0 -0.00284142 -9.12639e-06 0.00166824 -32.4663 6.30842 44.3912
6 1 13.9793 4.34408 2.84858 0.0934113 0.115642 0.0726192 0 0 0 -0.00191471 -0.00473226 0.00806636 57.4552 12.9782 8.76309
7 1 15.4311 3.78971 2.82484 0.103151 0.106179 0.0722551 0 0 0 -0.0110595 -0.00309647 -0.000764896 10.9177 28.4611 28.8143
8 1 16.4178 4.74541 2.17502 0.10977 0.122492 0.0622914 0 0 0 -0.00583065 -0.00656273 -0.0009642 -35.5561 12.6739 -17.3666
9 1 17.8046 4.2121 2.23492 0.119073 0.113389 0.0632098 0 0 0 0.0033756 0.00206954 0.00225874 34.0419 -67.188 -9.54193
10 1 18.5538 4.39616 0.941111 0.124098 0.116531 0.0433716 0 0 0 0.000365993 0.00041556 0.000609681 58.1936 27.837 1.21589
11 1 19.4605 5.65718 0.969677 0.130181 0.138055 0.0438096 0 0 0 -0.00886563 -0.00391152 0.0021276 -14.9284 -48.6621 20.07
12 1 20.1417 5.63249 -0.400194 0.134751 0.137634 0.0228051 0 0 0 0.00436062 0.00962 0.00881766 24.1123 -8.97091 -25.9652
13 2 20.9784 6.81477 -0.738304 0.140363 0.157814 0.0176208 0 0 0 -0.00219075 0.000232292 0.00103494 -18.449 40.09 -22.6941
14 3 22.1899 6.90163 0.102734 0.14849 0.159296 0.0305166 0 0 0 0.00178566 0.00364349 0.00630721 -43.0187 16.1126 -17.1724
15 3 20.3403 8.18671 -0.52361 0.136083 0.181232 0.0209128 0 0 0 -0.000630622 0.0013073 -0.00156919 -7.56536 -53.8184 -22.069
16 3 21.3357 6.81303 63.0532 0.14276 0.157784 0.995748 0 0 -1 -0.00127429 -0.000969249 0.00217708 7.52743 54.6654 -54.0641
17 1 7.23151 4.32796 0.2184 0.0481456 0.115366 0.0322901 0 0 0 -0.00121537 -0.00963824 0.00381588 3.58035 -23.0317 -18.4255
18 1 6.109 3.31632 -0.00661605 0.0406156 0.0980987 0.0288399 0 0 0 -0.00168954 0.0112999 0.00349515 -1.45834 -21.2761 -32.7543
19 1 4.79051 3.57518 0.65538 0.0317708 0.102517 0.0389904 0 0 0 -0.0068885 0.00220457 -0.00582534 -44.5665 8.44409 12.0373
20 3 4.28201 2.27983 1.37146 0.0283596 0.0804069 0.0499702 0 0 0 0.00532021 0.00328743 -0.0089452 -10.0357 46.2998 1.20534
21 4 4.3819 1.40777 0.665167 0.0290297 0.0655216 0.0391405 0 0 0 0.00901631 -0.0039646 0.0210347 -0.0722313 18.9168 18.4246
22 4 3.17982 2.3414 1.62099 0.0209659 0.0814578 0.0537964 0 0 0 -0.0172111 0.0273538 0.00668126 21.2791 -4.34659 -6.30017
23 4 4.87549 2.09829 2.27518 0.0323409 0.0773083 0.0638271 0 0 0 0.0141009 -0.00725762 0.0314639 8.56908 4.42923 7.99783
24 4 3.94926 3.90348 -0.0668229 0.0261275 0.108121 0.0279168 0 0 0 -0.00471799 0.0218871 0.0265062 26.5925 -3.03136 20.3506
25 4 4.90552 4.4211 1.30504 0.0325423 0.116956 0.0489517 0 0 0 -0.00733012 -0.0111499 0.0151271 6.68715 19.7689 19.5218
26 4 6.57178 2.36021 0.37343 0.04372 0.0817789 0.0346672 0 0 0 0.0177422 0.0159526 -0.0212326 -9.3748 10.2939 -18.0006
27 4 5.84542 3.26288 -1.09551 0.0388474 0.0971866 0.0121438 0 0 0 0.0128833 -0.00574022 -0.00813505 11.3838 -12.605 16.5287
28 4 7.54868 4.8296 -0.72277 0.0502733 0.123929 0.017859 0 0 0 -0.0310972 0.00697881 0.0105325 -4.36158 -7.00791 0.746609
29 4 6.86087 5.12202 0.842882 0.0456593 0.12892 0.0418654 0 0 0 0.00183737 0.0106542 0.0225724 -1.99799 17.2212 7.25853
30 4 7.95106 3.50809 1.96591 0.0529725 0.101372 0.059085 0 0 0 -0.0126623 -0.022045 -0.00729173 10.8614 -19.7723 -16.4537
31 4 8.78406 2.85129 0.46508 0.0585605 0.0901612 0.0360725 0 0 0 -0.0206373 -0.00989787 -0.0127393 1.46047 -42.4571 -18.7068
32 4 9.04389 5.4073 1.73432 0.0603035 0.13379 0.055534 0 0 0 0.00309099 0.0104781 -0.00737535 -16.772 43.4898 15.2544
33 4 9.7861 5.11279 0.159262 0.0652825 0.128763 0.0313834 0 0 0 -0.00325167 -0.000301228 -0.00573037 -0.899452 7.49456 18.2802
34 4 10.3895 3.16805 2.34485 0.0693299 0.0955679 0.0648954 0 0 0 0.00205061 0.0288055 -0.00459426 -15.7527 -12.9546 -4.1035
35 4 10.8456 4.7928 2.82331 0.0723899 0.123301 0.0722317 0 0 0 0.00409885 -0.0303859 -0.0132304 -5.9388 -1.5663 -22.3216
36 4 12.1764 5.02329 0.648325 0.081317 0.127235 0.0388823 0 0 0 -0.0244724 0.00293862 -0.00520322 14.9591 -5.5547 12.1497
37 4 11.766 3.28779 0.417137 0.0785638 0.0976118 0.0353374 0 0 0 0.0111369 -0.0153377 -0.0154725 16.2923 24.2445 13.7471
38 4 13.3907 2.62516 1.68956 0.0894634 0.0863014 0.0548476 0 0 0 0.0143057 -0.0240592 -0.0147041 16.6543 -10.2698 -10.7148
39 4 12.3015 3.02005 2.92185 0.0821562 0.0930418 0.0737426 0 0 0 -0.00161114 -0.0069336 -0.00858187 24.886 3.47999 -2.15683
40 4 13.8216 4.3164 3.90962 0.0923539 0.115169 0.0888883 0 0 0 -0.0221456 -0.0139186 0.000260655 -16.6942 5.17356 25.0812
41 4 14.0022 5.44897 2.50805 0.0935649 0.134501 0.0673977 0 0 0 0.00878635 0.000734481 -0.0190451 -17.5672 -40.7303 12.8331
42 4 15.3947 2.81129 2.31948 0.102906 0.0894785 0.0645064 0 0 0 0.0234638 0.0322057 0.00288644 18.628 5.36823 -5.03415
43 4 15.7976 3.61015 3.86055 0.105609 0.103114 0.0881359 0 0 0 0.00419919 0.00371566 -0.00272011 -2.2505 -3.03438 -9.34167
44 4 16.379 5.71352 2.56337 0.109509 0.139017 0.068246 0 0 0 -0.00475345 0.00202349 -0.0222064 0.5421 32.5708 16.0035
45 4 16.1906 4.92 1.11121 0.108245 0.125472 0.0459797 0 0 0 0.00250743 -0.0304142 -0.0127494 -21.4245 3.41567 13.684
46 4 17.7549 3.13046 2.49718 0.118739 0.0949263 0.067231 0 0 0 -0.00988508 -0.0177802 -0.0193449 2.27478 8.61091 -8.63478
47 4 18.3338 4.61267 3.06664 0.122622 0.120226 0.0759627 0 0 0 0.00109311 0.0197014 -0.00938307 13.9015 24.3198 15.4506
48 4 17.868 4.56897 0.194503 0.119498 0.11948 0.0319237 0 0 0 0.00888086 0.00464318 0.0295713 -25.6039 1.61707 -49.5524
49 4 19.1035 3.52028 0.552151 0.127786 0.10158 0.0374076 0 0 0 -0.00102155 -0.00208871 -0.0163096 -5.42042 -2.90017 19.2685
50 4 20.2055 5.63463 1.78852 0.135178 0.13767 0.0563651 0 0 0 -0.0121847 -0.00390837 0.00483361 0.715661 -1.24064 4.34887
51 4 18.8431 6.47767 1.17344 0.126039 0.15206 0.0469339 0 0 0 -0.00134177 -0.013654 -0.00508025 -27.2924 29.2382 4.297
52 4 19.3284 5.51953 -1.1527 0.129295 0.135705 0.0112668 0 0 0 -0.015307 -0.00521718 0.00201341 3.9253 2.64108 -9.2313
53 4 20.7961 4.72422 -0.469101 0.139141 0.12213 0.0217486 0 0 0 -0.0110465 -0.0284128 0.00121234 -1.38562 1.00034 4.52906
54 4 21.6099 5.89272 62.5907 0.1446 0.142075 0.988656 0 0 -1 0.010524 0.0234745 -0.00539499 5.395 -31.5559 4.4107
55 4 22.219 7.43608 62.9133 0.148685 0.168419 0.993603 0 0 -1 -0.00742891 0.0277412 0.013338 1.54783 -0.20049 2.5452
56 4 20.5712 7.26088 62.3253 0.137632 0.165429 0.984586 0 0 -1 0.00772987 0.0247331 0.0173247 9.87113 -9.44532 27.7912
57 4 20.2173 8.42081 0.558696 0.135258 0.185228 0.037508 0 0 0 0.0187635 -0.00747043 -0.0209956 -0.738416 -5.3605 -11.8569
58 4 19.3249 8.20235 -1.07472 0.129271 0.181499 0.0124626 0 0 0 0.0026369 -0.000348672 0.0056551 34.0983 2.99361 26.3394
59 4 20.8855 9.08243 -0.954025 0.13974 0.196521 0.0143131 0 0 0 -0.00670163 0.0061073 -0.0210913 8.58867 -31.9159 13.1945
60 4 22.968 7.56512 -0.352688 0.15371 0.170622 0.0235335 0 0 0 -0.0134564 0.0126309 0.00531549 -6.63226 3.26744 15.3097
61 4 22.6197 5.95223 0.210548 0.151373 0.143091 0.0321697 0 0 0 -0.0115823 0.00616507 -0.00854755 20.1243 -44.0657 4.61048
62 4 21.9065 7.22107 1.13752 0.146589 0.164749 0.0463832 0 0 0 -0.0132191 -0.00724113 0.00444448 4.90065 -3.66905 -12.715
63 5 14.2463 6.86312 46.8749 0.0952028 0.158639 0.747683 0 0 -1 -0.000552271 0.00231857 -0.00319548 11.4594 68.985 -60.5163
64 1 30.6767 5.90915 10.9515 0.205422 0.142356 0.196863 0 0 0 0.0022648 0.00125998 0.00208193 27.0468 -38.0383 47.2961
65 1 32.068 5.46605 11.3821 0.214755 0.134793 0.203464 0 0 0 -0.00202308 -0.00484489 -0.00656447 65.0988 80.6786 -10.833
66 1 33.1308 5.86871 10.3011 0.221885 0.141666 0.18689 0 0 0 0.00226097 -0.000145149 0.00063268 -121.004 6.36804 19.6703
67 1 34.5043 5.54087 10.6586 0.231098 0.13607 0.192371 0 0 0 -0.00120553 -0.00138232 -0.00339282 43.1652 -12.3747 22.2835
68 1 35.285 4.833 9.61761 0.236335 0.123987 0.17641 0 0 0 0.00388601 -0.00100841 -0.00176697 -4.70105 -34.1736 -6.93479
69 1 35.5996 5.72979 8.52141 0.238446 0.139294 0.159602 0 0 0 -0.00382169 -0.000326096 -0.00238452 -47.3008 16.0262 -35.2274
70 1 36.1579 4.85165 7.41066 0.242191 0.124305 0.14257 0 0 0 -0.000158392 -0.00293311 0.00276531 25.2732 16.9806 -64.693
71 1 37.7144 4.9238 7.51542 0.252632 0.125537 0.144177 0 0 0 0.000851556 0.0108491 0.00145828 -0.754514 24.2269 -50.4209
72 1 38.4432 3.62249 7.23571 0.257521 0.103325 0.139888 0 0 0 0.00531508 0.00220896 0.00299212 33.33 36.0011 -33.9273
73 1 38.3968 3.07527 5.81537 0.25721 0.0939842 0.118109 0 0 0 -0.00358219 -0.00266325 0.00446649 38.0334 -93.0202 36.9679
74 1 39.5983 2.10738 5.44759 0.26527 0.0774634 0.11247 0 0 0 -9.03776e-05 -0.00445615 -0.00178154 -12.1443 29.2252 53.4716
75 1 40.8534 2.91403 5.10719 0.273689 0.091232 0.107251 0 0 0 -0.00310591 0.00866588 -0.00563197 -35.4278 11.2923 -8.35916
76 2 41.5688 2.34382 4.02049 0.278489 0.0814991 0.0905883 0 0 0 0.000605199 0.00612214 -0.00453491 43.5846 -59.7975 -39.9404
77 3 40.8269 2.36584 2.76011 0.273512 0.081875 0.0712627 0 0 0 -0.00549129 -0.00414085 0.000647417 -47.4849 0.00117563 14.756
78 3 41.8771 0.889269 4.31586 0.280557 0.0566713 0.0951172 0 0 0 0.00133969 0.00719257 -0.000406882 5.391 21.5059 13.2488
79 3 42.8534 2.98485 3.91793 0.287106 0.0924409 0.0890157 0 0 0 0.000410847 -0.00971693 -0.00142848 45.6773 51.66 -33.3721
80 1 29.8113 4.62917 10.9981 0.199616 0.120508 0.197578 0 0 0 0.000688474 0.00295306 -0.00210349 -2.82364 58.7182 -30.7783
81 1 28.3018 4.96704 11.01 0.18949 0.126275 0.19776 0 0 0 -0.00687029 0.00311531 -0.0109406 41.8606 -29.596 5.77564
82 1 27.513 3.68477 11.2547 0.184199 0.104388 0.201511 0 0 0 0.000470315 -0.00266953 0.00127457 -3.31311 14.6226 53.3081
83 3 26.2788 3.61201 10.4097 0.17592 0.103146 0.188556 0 0 0 -0.0023073 0.00445929 0.00990184 -52.0772 21.6745 18.1459
84 4 25.2817 3.87014 10.9395 0.169231 0.107552 0.196679 0 0 0 0.00502604 0.0221813 0.0169087 32.5009 -3.98049 -2.11972
85 4 26.0602 2.57322 10.2044 0.174453 0.0854148 0.185407 0 0 0 0.0133662 0.0251861 0.0177293 0.772941 -22.8303 -13.8524
86 4 26.2833 4.20568 9.48321 0.17595 0.113279 0.174349 0 0 0 -0.022445 0.0091465 -0.0254574 6.09515 -11.3156 2.48187
87 4 27.2468 3.5903 12.3335 0.182413 0.102775 0.218054 0 0 0 -0.000315322 0.00838477 -0.012897 3.6703 13.2008 -4.29169
88 4 28.2523 2.88091 11.1052 0.189159 0.0906667 0.19922 0 0 0 -0.0212126 -0.00510552 0.00616735 -12.4757 -1.71754 0.83966
89 4 28.0199 5.34039 10.0842 0.187599 0.132648 0.183565 0 0 0 0.00875219 -0.0260394 -0.0254246 -9.32451 16.6207 -31.231
90 4 28.0926 5.72387 11.7743 0.188087 0.139193 0.209479 0 0 0 -0.00355299 -0.0229906 -0.00292057 -8.87943 1.47922 9.34613
91 4 30.1039 4.07674 11.871 0.201579 0.111078 0.210961 0 0 0 0.0105485 -0.00538617 2.30302e-05 0.304181 -20.7986 22.052
92 4 30.0572 4.0175 10.1282 0.201266 0.110067 0.184239 0 0 0 -0.0165028 0.0162243 -0.00027464 -2.54913 -6.65152 -0.31231
93 4 30.7261 6.31683 10.0294 0.205753 0.149315 0.182725 0 0 0 -0.00857352 -0.0273497 -0.0145147 5.63227 20.8588 -64.4741
94 4 30.2864 6.68136 11.5789 0.202804 0.155537 0.206483 0 0 0 0.00472398 -0.00812094 -0.0103331 -4.51582 10.8694 20.432
95 4 32.2129 4.43626 11.7054 0.215727 0.117215 0.208422 0 0 0 -0.0317703 -0.00557526 -0.0395294 -14.8831 -7.35093 -2.19321
96 4 32.3355 6.13068 12.2212 0.216549 0.146137 0.216331 0 0 0 0.0150144 0.000337851 -0.0275349 5.59218 -2.74582 17.5392
97 4 32.9717 6.999 10.1059 0.220817 0.160959 0.183896 0 0 0 -0.0163901 0.00757679 -0.0172921 7.375 -33.4634 7.43234
98 4 32.7991 5.37903 9.36995 0.219659 0.133307 0.172612 0 0 0 0.0143624 0.00245302 0.0130612 -0.920539 3.13734 -6.7776
99 4 34.4394 4.94078 11.5796 0.230663 0.125827 0.206493 0 0 0 -0.0107658 -0.000536858 -0.0363397 13.018 4.79033 -3.0486
100 4 35.085 6.44958 10.948 0.234994 0.15158 0.19681 0 0 0 -0.00532066 0.040331 -0.0160839 -13.6278 -12.1372 1.85155
101 4 34.7934 3.87325 9.34572 0.233038 0.107605 0.172241 0 0 0 -0.00635829 -0.000694777 0.0115133 -8.64802 16.4702 -6.08889
102 4 36.2609 4.49274 9.9789 0.242882 0.118179 0.18195 0 0 0 0.0304693 0.00125277 0.028741 3.91511 4.29215 4.75643
103 4 36.2383 6.58015 8.70593 0.242731 0.153809 0.162431 0 0 0 0.0204755 0.0219756 -0.0190552 17.9556 5.68724 11.6601
104 4 34.6808 6.23849 8.24139 0.232283 0.147977 0.155308 0 0 0 0.00705916 0.0188344 0.0189894 -1.88933 -5.56169 -13.2542
105 4 35.9256 5.33631 6.38943 0.240633 0.132578 0.126912 0 0 0 0.016667 -0.00592084 0.00225135 0.909876 -21.1214 28.2813
106 4 35.7499 3.82782 7.35485 0.239454 0.10683 0.141715 0 0 0 0.00640073 0.0147574 -0.00613418 8.20998 -10.7697 3.05403
107 4 38.0767 5.16569 8.5111 0.255063 0.129666 0.159444 0 0 0 0.0387638 0.00957003 -0.00350764 -13.5343 15.4794 7.50645
108 4 38.0155 5.83944 6.8991 0.254653 0.141166 0.134727 0 0 0 0.0124005 -0.00148256 -0.00143918 10.8514 -23.8732 12.5646
109 4 38.0779 2.87109 7.9355 0.255071 0.0904991 0.150618 0 0 0 -0.0303283 -0.00783971 -0.0305979 2.53229 -9.79711 1.20796
110 4 39.4909 3.87004 7.4815 0.26455 0.10755 0.143657 0 0 0 0.0130047 -0.00526104 0.00677573 9.95122 -1.55994 -3.28967
111 4 38.3097 3.84936 5.1279 0.256626 0.107197 0.107568 0 0 0 0.0336774 0.0201207 -0.00272024 -7.2428 29.0475 -21.8936
112 4 37.5025 2.41705 5.63284 0.251211 0.082749 0.115311 0 0 0 0.0279076 -0.00799725 -0.0183046 3.2774 10.7998 14.6578
113 4 39.256 1.44931 4.6778 0.262974 0.0662307 0.100667 0 0 0 0.00829216 0.0230232 0.000703733 -9.65995 -3.02582 -30.4793
114 4 39.9131 1.34021 6.24175 0.267382 0.0643685 0.124647 0 0 0 0.00316512 -0.00305765 -0.0188321 -25.217 18.4493 -2.4785
115 4 41.5744 2.97402 5.92314 0.278527 0.0922561 0.119762 0 0 0 -0.000926579 -0.0170348 -0.00983217 4.70123 2.98494 24.817
116 4 40.546 3.96277 4.91207 0.271628 0.109133 0.104259 0 0 0 -0.0407094 0.00124825 -0.00641708 7.6976 3.13121 -5.28822
117 4 42.7673 4.11143 3.7559 0.286529 0.111671 0.0865312 0 0 0 0.000409648 -0.0265084 0.0317548 -5.54713 -16.4011 20.2279
118 4 43.3757 2.70159 2.97394 0.29061 0.087606 0.0745413 0 0 0 -0.00171581 -0.00531832 0.00805711 -11.7595 -5.81074 1.56348
119 4 43.5974 2.70276 4.7426 0.292097 0.0876259 0.101661 0 0 0 0.0124232 0.00200786 0.0127067 -23.2586 15.0577 -7.77253
120 4 40.9696 0.221316 4.27931 0.274469 0.04527 0.0945569 0 0 0 0.0279718 -0.00177711 -0.0239849 18.7916 11.8903 -9.32727
121 4 42.2752 0.764881 5.32762 0.283227 0.0545482 0.110631 0 0 0 -0.00609634 0.0201267 -0.000759104 7.52788 3.39887 3.59212
122 4 42.6336 0.355465 3.70846 0.285632 0.0475598 0.0858039 0 0 0 0.0112438 0.0102906 0.00493537 -1.92203 8.30957 -18.7126
123 4 40.0108 3.1499 2.84154 0.268037 0.0952582 0.0725112 0 0 0 -0.032213 -0.0142023 -0.0171831 6.95407 -10.8963 -3.35637
124 4 40.3882 1.41192 2.43422 0.270569 0.0655925 0.0662657 0 0 0 -0.0146208 -0.0195377 -0.0260495 -8.67858 -9.13872 18.5077
125 4 41.4295 2.60822 1.92025 0.277555 0.0860121 0.0583849 0 0 0 -0.00766677 -0.025281 0.00788747 15.4481 6.57246 -12.1297
126 5 45.7759 55.7342 5.17125 0.306711 0.992822 0.108233 0 -1 0 -0.00177296 -0.000587963 0.00134015 45.9349 39.9318 -6.1688
127 1 58.0451 4.84174 3.60602 0.389016 0.124136 0.0842331 0 0 0 0.00167587 -0.00555521 0.0112742 -14.8625 4.63366 6.09716
128 1 58.7198 6.24725 3.77333 0.393542 0.148127 0.0867985 0 0 0 0.00441419 0.00123083 -0.0101133 0.297671 -42.2377 15.0727
129 1 59.8776 6.23306 2.81795 0.401309 0.147885 0.0721495 0 0 0 -0.00879601 0.00407223 -0.00407406 5.16248 29.3083 -8.89834
130 1 60.731 7.52746 2.80796 0.407034 0.169979 0.0719964 0 0 0 -0.00341265 -0.00220942 -5.82713e-05 11.1086 -37.0379 32.0705
131 1 61.3999 7.67701 1.41779 0.411521 0.172531 0.0506807 0 0 0 0.00463283 0.00907784 0.0022671 -23.9127 -23.5212 19.3439
132 1 62.4166 8.76154 1.25155 0.418341 0.191043 0.0481316 0 0 0 0.00183722 -0.00349279 -0.00361199 -2.80606 5.43269 48.6986
133 1 63.7673 8.31573 1.73594 0.427402 0.183434 0.0555588 0 0 0 0.00461627 0.00475351 0.000180217 -11.7245 -35.723 27.5747
134 1 64.4783 9.48316 2.44464 0.432171 0.203361 0.0664255 0 0 0 -0.00554217 0.00235219 0.000521365 35.1435 -2.5057 -18.0036
135 1 65.9992 9.3247 2.17984 0.442374 0.200656 0.0623653 0 0 0 0.00804047 -0.00411124 0.00116445 20.3043 33.1139 -6.23911
136 1 66.655 10.6126 1.62794 0.446773 0.222639 0.0539028 0 0 0 -0.00462426 0.00124253 -0.00428059 33.8583 -12.0171 -55.9397
137 1 67.9885 10.2347 0.937696 0.455719 0.216188 0.0433192 0 0 0 0.000638255 -0.00385101 0.00509158 -4.46811 37.0965 16.3624
138 1 69.1407 10.1764 1.97221 0.463448 0.215194 0.0591816 0 0 0 0.000357242 -0.00662056 0.00292248 -31.2669 2.21427 38.9902
139 2 70.3611 9.59747 1.50223 0.471635 0.205312 0.0519754 0 0 0 0.00120469 0.0015834 0.00495974 19.4387 -38.9632 -62.8922
140 3 70.2572 8.12804 1.58781 0.470938 0.18023 0.0532875 0 0 0 -0.00543365 0.00456085 -0.00803557 -40.4867 -63.0601 -14.5224
141 3 71.4885 9.9515 2.33935 0.479198 0.211355 0.064811 0 0 0 -0.00576575 -0.00120009 -0.00564698 -13.472 -16.2328 15.6857
142 3 70.6982 9.90002 0.0830647 0.473896 0.210476 0.030215 0 0 0 -0.000817559 -0.00640259 0.00275749 1.88283 5.9526 50.6943
143 1 56.7401 4.6039 2.77452 0.380262 0.120076 0.0714836 0 0 0 -0.00259979 0.00139057 0.001421 -8.64004 5.44286 40.0315
144 1 56.1567 3.22357 3.16569 0.376348 0.0965157 0.0774815 0 0 0 -0.000328057 -0.000570424 0.00820522 -2.87141 -0.860634 22.1688
145 1 55.1955 3.0911 4.39658 0.3699 0.0942545 0.0963549 0 0 0 -0.00203535 0.00527214 -0.0051118 -25.8258 13.2617 -54.1773
146 3 53.7466 3.66613 4.22649 0.36018 0.10407 0.093747 0 0 0 -0.0100659 0.00480924 -0.00404879 32.4946 -20.294 -12.7825
147 4 53.749 4.7569 4.35275 0.360197 0.122688 0.0956828 0 0 0 -0.000929969 0.0361461 -0.00500724 5.62173 7.97296 -8.08783
148 4 53.0573 3.30884 5.06724 0.355556 0.0979711 0.106638 0 0 0 0.0127457 0.00183567 -0.0171976 20.0859 0.229789 -23.1848
149 4 53.3608 3.33725 3.20816 0.357593 0.098456 0.0781326 0 0 0 0.00136186 -0.00159392 0.0160676 -0.631028 18.0765 22.3768
150 4 55.6681 3.60294 5.22588 0.373071 0.102991 0.109071 0 0 0 0.00010272 -0.00793189 0.0144607 8.4783 -3.88681 13.6839
151 4 55.1245 2.01869 4.61012 0.369424 0.0759494 0.0996292 0 0 0 0.011804 0.0253295 0.00394426 -9.13711 -9.89805 18.8102
152 4 56.9505 2.50452 3.32714 0.381673 0.0842422 0.079957 0 0 0 -0.00563715 -0.018161 -0.00188169 22.6698 -6.06507 -6.1399
153 4 55.6365 2.76266 2.29933 0.372858 0.0886483 0.0641974 0 0 0 0.00660214 0.000954912 0.00419116 -0.504498 12.9958 -0.964598
154 4 57.1526 4.62682 1.76506 0.383029 0.120468 0.0560054 0 0 0 -0.0360145 0.00398194 0.00308661 -17.3325 1.9524 -12.6068
155 4 55.9404 5.41857 3.00869 0.374897 0.133982 0.0750742 0 0 0 -0.0404993 -0.014313 -0.0230942 36.9765 -26.6462 -22.2775
156 4 57.9438 4.35212 4.58741 0.388336 0.115779 0.0992809 0 0 0 0.000117311 0.0118048 -0.00839978 -4.56229 12.3281 15.1409
157 4 58.7024 4.09216 3.1545 0.393425 0.111342 0.0773098 0 0 0 0.00851821 -0.00946408 0.00383578 9.80562 12.1472 -7.69414
158 4 59.1054 6.36788 4.81804 0.396129 0.150186 0.102817 0 0 0 0.0160709 -0.00530656 -0.00883515 -2.79472 0.483933 -7.35487
159 4 58.0498 7.08475 3.50787 0.389047 0.162422 0.0827282 0 0 0 -0.0153886 -0.00931871 0.000764531 5.84359 -6.9366 1.67702
160 4 59.4397 6.04462 1.80826 0.398371 0.144668 0.0566677 0 0 0 0.0133381 -0.0242752 -0.015506 4.65154 11.2405 5.23419
161 4 60.5931 5.3808 2.8979 0.406109 0.133338 0.0733754 0 0 0 0.0103832 -0.020807 -0.00975193 -13.9437 -4.4437 16.6849
162 4 61.3833 7.54048 3.71236 0.411409 0.170201 0.0858637 0 0 0 0.00332298 0.00678954 0.0147804 13.3938 -0.997621 -9.45039
163 4 60.1169 8.3805 3.02907 0.402914 0.184539 0.0753867 0 0 0 -0.0201319 0.0081107 0.0091332 -14.774 19.3154 2.86037
164 4 60.6689 7.87484 0.691132 0.406617 0.175908 0.0395386 0 0 0 0.0195065 -0.00732272 -0.00635286 -32.0149 5.69161 -25.8863
165 4 61.8492 6.74432 1.10054 0.414535 0.156611 0.0458162 0 0 0 0.00227426 0.00484575 -0.0220062 -4.0803 -10.4186 -4.15956
166 4 62.186 9.67797 1.84578 0.416794 0.206686 0.0572431 0 0 0 0.0180618 -0.000967649 0.0114707 -11.3762 -6.32154 -5.96778
167 4 62.3618 9.04004 0.229166 0.417974 0.195797 0.0324552 0 0 0 0.0269719 0.0175817 0.0251469 12.9304 3.09128 -34.872
168 4 64.2611 7.88473 0.827961 0.430714 0.176077 0.0416366 0 0 0 -0.0390921 -0.0116977 -0.00296688 11.1438 1.23334 21.7181
169 4 63.697 7.48773 2.53266 0.42693 0.169301 0.0677751 0 0 0 0.010094 -0.0174588 0.0111187 -1.97862 22.7562 -25.7253
170 4 64.3823 9.42598 3.54957 0.431527 0.202385 0.0833676 0 0 0 0.00836666 0.0133682 0.00421526 -16.5461 4.23657 -2.2573
171 4 64.0714 10.4732 2.19998 0.429442 0.22026 0.062674 0 0 0 0.0160807 -0.0059576 5.9492e-05 10.3755 1.52575 -2.60386
172 4 66.2171 8.46477 1.52474 0.443836 0.185978 0.0523205 0 0 0 0.0177434 0.00964947 0.00418668 0.150216 -7.95366 -1.71933
173 4 66.5471 9.11808 3.13833 0.44605 0.197129 0.077062 0 0 0 -0.00728276 -0.0268154 0.0195762 -11.2155 -0.335486 -0.869507
174 4 66.7691 11.4344 2.32494 0.447539 0.236666 0.06459 0 0 0 -0.0171087 -0.0276317 -0.0424239 -4.8313 9.81225 21.4559
175 4 66.1455 11.0174 0.749587 0.443356 0.22955 0.0404349 0 0 0 -0.0168376 -0.00500646 -0.0221435 -17.5091 -0.311274 -3.18371
176 4 68.098 10.8715 0.035016 0.456453 0.227058 0.0294783 0 0 0 0.00389195 -0.0199444 0.00572588 21.3261 8.24301 5.62138
177 4 67.8147 9.28181 0.464076 0.454553 0.199924 0.0360571 0 0 0 0.011026 0.00789203 0.0139627 -1.7604 -19.0481 1.59714
178 4 68.8385 9.61022 2.8712 0.461421 0.20553 0.0729661 0 0 0 0.00172741 -0.00554847 0.00548984 2.03866 1.97292 -10.4794
179 4 69.4061 11.1728 2.38783 0.465228 0.232201 0.0655543 0 0 0 -0.00462414 -0.0108857 -0.00687346 -11.5681 -5.47057 -9.87959
180 4 70.6319 10.9905 -0.13483 0.473451 0.22909 0.026874 0 0 0 -0.0227225 -0.0225129 8.75879e-05 3.08126 2.58828 -0.942412
181 4 70.0899 9.34926 -0.646511 0.469815 0.201075 0.0190283 0 0 0 0.0310723 0.0165529 0.0362244 -6.8345 2.46126 -4.16136
182 4 71.6469 9.48255 -0.158593 0.48026 0.20335 0.0265096 0 0 0 -0.00626193 0.0156297 -0.00517312 25.631 -0.416428 -8.83707
183 4 72.3054 9.36919 1.85119 0.484677 0.201415 0.057326 0 0 0 -0.0164494 -0.00795223 0.00791114 9.65829 15.5641 11.9353
184 4 71.3596 9.58074 3.40268 0.478333 0.205026 0.0811152 0 0 0 0.0139449 0.00557609 -0.00401547 8.26849 9.26554 -22.0857
185 4 71.7896 10.9771 2.3496 0.481218 0.22886 0.0649682 0 0 0 0.00383687 -0.0118125 0.0021875 3.31156 21.8851 -4.94491
186 4 70.9262 7.63837 2.29706 0.475426 0.171872 0.0641627 0 0 0 -0.0298379 0.0189926 -0.0144803 15.1709 10.9397 6.56465
187 4 70.4403 7.57784 0.65635 0.472166 0.170839 0.0390053 0 0 0 -0.0179192 0.022966 -0.0142001 17.077 17.6943 -19.3583
188 4 69.257 7.69123 1.80922 0.464228 0.172774 0.0566825 0 0 0 -0.0338653 0.0154304 0.00016702 -1.26022 20.5561 -0.671472
189 5 77.2619 9.03138 5.43076 0.517927 0.195649 0.112212 0 0 0 -0.000722344 -0.000876391 0.000205849 -13.4087 -73.1386 17.9035
190 1 85.1175 6.34318 61.0587 0.570625 0.149764 0.965166 0 0 -1 0.00344693 0.00134472 0.00223829 -16.0429 -62.2609 -41.5096
191 1 86.1582 7.30078 61.619 0.577606 0.16611 0.973757 0 0 -1 -0.00182496 -0.00329315 0.00557636 -11.7764 10.2937 -17.2038
192 1 87.5401 6.9162 61.0241 0.586876 0.159545 0.964634 0 0 -1 -0.00782685 -0.000155224 -0.00181355 -12.372 5.81649 -2.98455
193 1 88.4896 8.03427 61.1444 0.593245 0.17863 0.966479 0 0 -1 0.00400108 0.000442578 0.00369952 -47.7987 60.0133 -33.1178
194 1 89.886 7.64359 61.4496 0.602613 0.171961 0.971159 0 0 -1 0.00135483 0.00389296 -0.00743336 6.23637 3.62901 -1.7751
195 1 90.4928 8.15363 62.7573 0.606684 0.180667 0.99121 0 0 -1 0.000320299 -0.00661763 0.00328067 -14.0354 -6.91052 -46.439
196 1 91.9874 8.07684 62.6151 0.61671 0.179356 0.989031 0 0 -1 -0.00355873 0.00967624 0.000431402 21.471 -18.9104 11.7872
197 1 92.6292 9.34631 61.9907 0.621015 0.201025 0.979455 0 0 -1 -0.000273683 -0.0037023 0.000134543 -16.3289 -49.858 56.1436
198 1 94.0461 9.4836 62.5752 0.63052 0.203368 0.988418 0 0 -1 0.00299446 -0.00122673 -0.00550567 -29.8078 -4.76818 -2.89181
199 1 94.6186 10.804 62.1851 0.63436 0.225905 0.982437 0 0 -1 -0.00389628 -0.00186077 0.00109997 -4.01639 6.86226 17.5286
200 1 93.9263 12.0539 62.8006 0.629716 0.247241 0.991875 0 0 -1 -0.00646217 0.00201141 -0.00100932 -46.7353 -9.35182 -36.0329
201 1 94.8473 13.1277 -1.83903 0.635894 0.265569 0.000743189 0 0 0 -0.0043041 -0.00376351 0.00258569 17.6766 -37.0809 25.089
202 2 94.1701 14.2064 -1.1069 0.631352 0.283983 0.0119691 0 0 0 0.00323974 0.00282199 0.004727 13.7057 39.1978 57.8708
203 3 95.2449 14.8514 -0.298473 0.638562 0.294992 0.0243648 0 0 0 0.00450357 0.00093049 -0.00260352 -73.8633 37.6148 -16.7537
204 3 93.139 13.6761 -0.121906 0.624435 0.27493 0.0270722 0 0 0 0.00823626 0.00010107 0.00217582 67.6084 50.3624 12.6611
205 3 93.5211 15.219 63.2641 0.626998 0.301267 0.998981 0 0 -1 0.004799 0.0054536 -0.000426644 -6.38325 -33.1766 25.5693
206 1 83.7613 6.42889 61.7827 0.561527 0.151227 0.976267 0 0 -1 0.00168671 0.00509614 -0.000134609 -24.3238 -7.22635 10.7872
207 1 82.5366 6.57941 60.8602 0.553311 0.153797 0.962121 0 0 -1 -0.00476332 0.00324897 0.000726747 53.1867 6.67258 -5.09246
208 1 81.3271 7.03479 61.5732 0.545198 0.16157 0.973054 0 0 -1 -0.00579077 0.0011205 0.00465524 -14.2896 -6.76206 -34.0445
209 3 80.2131 7.31996 60.5489 0.537725 0.166437 0.957348 0 0 -1 -0.00498855 -0.00259452 0.0027436 1.57881 -35.9489 36.2786
210 4 79.6123 6.40763 60.5227 0.533694 0.150864 0.956946 0 0 -1 0.0205491 -0.00698066 -0.00470249 -7.71406 -16.5406 -13.1276
211 4 80.5696 7.47059 59.5561 0.540116 0.169008 0.942126 0 0 -1 -0.0127369 0.00389743 -0.019367 11.5695 8.9261 -32.8246
212 4 79.4462 8.00854 60.9154 0.53258 0.17819 0.962968 0 0 -1 -0.0023351 -0.0022024 0.00261237 6.61794 21.6725 -6.79557
213 4 81.5939 7.83989 62.2698 0.546988 0.175312 0.983735 0 0 -1 0.0111322 0.00523127 -0.00794052 -7.03494 12.748 3.89056
214 4 80.8976 6.16252 62.0804 0.542317 0.146681 0.980832 0 0 -1 -0.0239313 -0.00437527 0.0134808 9.99847 8.57855 26.5272
215 4 82.3334 5.64689 60.4112 0.551948 0.137879 0.955237 0 0 -1 0.0165077 0.0418489 0.0111962 0.561169 -37.7025 -12.9593
216 4 82.8523 7.24037 60.0406 0.555429 0.165078 0.949555 0 0 -1 -0.00946455 0.00587734 -0.00447256 -1.81775 6.31008 4.11163
217 4 83.7468 7.24586 62.5656 0.56143 0.165172 0.988271 0 0 -1 0.0144791 0.00394436 -0.0180524 6.32989 -26.2818 -16.5532
218 4 83.7241 5.46729 62.2375 0.561277 0.134814 0.98324 0 0 -1 0.0291931 -0.00871405 0.000186492 -7.61884 -7.09427 20.9299
219 4 85.5765 5.29029 61.0929 0.573704 0.131793 0.96569 0 0 -1 0.00823214 0.0172312 -0.00358958 -9.80263 16.8182 20.3444
220 4 85.0209 6.4048 59.9494 0.569976 0.150816 0.948156 0 0 -1 0.0153391 -0.0230879 0.00658793 -1.16536 7.00899 4.33017
221 4 86.2383 7.24297 62.6857 0.578143 0.165123 0.990112 0 0 -1 -0.00439259 0.00472228 0.00661324 1.98558 -4.90755 26.9055
222 4 85.8293 8.30411 61.3184 0.575399 0.183236 0.969148 0 0 -1 -0.00032656 -0.00910075 0.00114262 13.9276 16.6187 -1.98054
223 4 87.3831 6.63412 59.9902 0.585822 0.15473 0.948782 0 0 -1 0.00536502 -0.0170844 -0.0208318 0.687939 1.91526 -14.4381
224 4 87.946 6.02902 61.5066 0.589599 0.144402 0.972032 0 0 -1 0.0173798 -0.00207495 0.00727358 1.18907 -12.5295 3.28411
225 4 88.0634 8.71484 61.9014 0.590386 0.190246 0.978087 0 0 -1 0.00680888 -0.029644 -0.0108048 0.607593 3.29762 -1.48063
226 4 88.4145 8.69444 60.2147 0.592742 0.189898 0.952225 0 0 -1 0.00214266 0.00660621 0.00427605 2.01352 -18.0341 21.3055
227 4 90.5092 7.98229 60.6362 0.606793 0.177742 0.958687 0 0 -1 -4.60882e-05 -0.0196907 -0.0159662 9.85189 9.57935 -18.1154
228 4 90.0822 6.57264 61.3832 0.603929 0.153681 0.97014 0 0 -1 -0.0262186 0.010538 0.016131 -8.44963 -15.2857 10.0181
229 4 90.1225 7.56329 -1.63689 0.604199 0.170591 0.0038427 0 0 0 -0.0147178 -0.002164 0.00766686 -7.08757 -9.05369 8.43045
230 4 90.2241 9.21246 62.9075 0.604881 0.19874 0.993513 0 0 -1 -0.00725846 0.00487844 -0.000642367 -13.7385 -6.02765 8.6444
231 4 92.2733 7.1622 62.1151 0.618627 0.163744 0.981364 0 0 -1 0.00831535 0.00370876 0.00617064 6.9753 -12.9561 -21.4726
232 4 92.3658 7.84959 -1.59752 0.619248 0.175477 0.00444629 0 0 0 0.000143963 -0.00778698 0.00351088 13.2964 14.0572 -2.28482
233 4 92.023 10.2476 62.1109 0.616948 0.216408 0.981299 0 0 -1 -0.0228948 0.0054282 -0.0271761 -6.66334 2.10793 12.4189
234 4 92.6627 9.13583 60.9361 0.62124 0.197432 0.963286 0 0 -1 -0.0108503 0.010796 0.0187096 6.90189 18.6951 -7.61955
235 4 94.6644 8.63029 62.4057 0.634667 0.188803 0.985819 0 0 -1 -0.00217978 -0.00749046 4.50808e-06 7.68541 -8.31832 -20.9828
236 4 94.0496 9.38504 -1.61341 0.630543 0.201686 0.00420259 0 0 0 -0.0147388 0.00990536 0.00922193 -17.1089 11.5713 46.9119
237 4 94.5646 10.7884 61.0629 0.633998 0.225641 0.96523 0 0 -1 -0.0251947 0.035049 0.0233779 5.05567 7.95325 22.0306
238 4 95.6426 10.6819 62.5611 0.641229 0.223822 0.988202 0 0 -1 0.0100204 0.00783946 0.00530122 12.2705 8.16629 -3.66843
239 4 93.0373 11.7455 -1.76673 0.623753 0.241977 0.00185176 0 0 0 0.00895158 0.00861914 0.0212457 19.5588 3.05924 -5.67817
240 4 93.4444 12.5876 61.9118 0.626484 0.256351 0.978246 0 0 -1 -0.00709752 -0.0220328 -0.0013711 5.77601 -13.6462 19.1404
241 4 95.4428 13.5188 62.5433 0.639889 0.272245 0.987929 0 0 -1 -0.0159446 0.00926638 -0.00213557 -3.91684 13.6233 -11.5917
242 4 95.6359 12.6321 -1.20419 0.641185 0.25711 0.0104774 0 0 0 -0.00759915 0.0150612 0.00378928 -17.3175 0.197417 -1.01205
243 4 93.1866 14.6975 62.3521 0.624754 0.292365 0.984998 0 0 -1 0.00180478 0.00992859 0.00174587 -9.64218 16.4743 -12.6627