ITEM: TIMESTEP
0
ITEM: NUMBER OF ATOMS
3150
ITEM: BOX BOUNDS pp pp pp
-11.1925 70.2075
-11.1925 70.2075
-34.595 46.805
ITEM: ATOMS id type xu yu zu
 1 1 0 0 0
 2 1 2.035 2.035 0
 3 1 2.035 0 2.035
 4 1 0 2.035 2.035
 5 1 4.07 0 0
 6 1 6.105 2.035 0
 7 1 6.105 0 2.035
 8 1 4.07 2.035 2.035
 9 1 8.14 0 0
 10 1 10.175 2.035 0
 11 1 10.175 0 2.035
 12 1 8.14 2.035 2.035
 13 1 12.21 0 0
 14 1 14.245 2.035 0
 15 1 14.245 0 2.035
 16 1 12.21 2.035 2.035
 17 1 16.28 0 0
 18 1 18.315 2.035 0
 19 1 18.315 0 2.035
 20 1 16.28 2.035 2.035
 21 1 20.35 0 0
 22 1 22.385 2.035 0
 23 1 22.385 0 2.035
 24 1 20.35 2.035 2.035
 25 1 24.42 0 0
 26 1 26.455 2.035 0
 27 1 26.455 0 2.035
 28 1 24.42 2.035 2.035
 29 1 28.49 0 0
 30 1 30.525 2.035 0
 31 1 30.525 0 2.035
 32 1 28.49 2.035 2.035
 33 1 32.56 0 0
 34 1 34.595 2.035 0
 35 1 34.595 0 2.035
 36 1 32.56 2.035 2.035
 37 1 36.63 0 0
 38 1 38.665 2.035 0
 39 1 38.665 0 2.035
 40 1 36.63 2.035 2.035
 41 1 40.7 0 0
 42 1 42.735 2.035 0
 43 1 42.735 0 2.035
 44 1 40.7 2.035 2.035
 45 1 44.77 0 0
 46 1 46.805 2.035 0
 47 1 46.805 0 2.035
 48 1 44.77 2.035 2.035
 49 1 48.84 0 0
 50 1 50.875 2.035 0
 51 1 50.875 0 2.035
 52 1 48.84 2.035 2.035
 53 1 52.91 0 0
 54 1 54.945 2.035 0
 55 1 54.945 0 2.035
 56 1 52.91 2.035 2.035
 57 1 56.98 0 0
 58 1 59.015 2.035 0
 59 1 59.015 0 2.035
 60 1 56.98 2.035 2.035
 61 1 0 4.07 0
 62 1 2.035 6.105 0
 63 1 2.035 4.07 2.035
 64 1 0 6.105 2.035
 65 1 4.07 4.07 0
 66 1 6.105 6.105 0
 67 1 6.105 4.07 2.035
 68 1 4.07 6.105 2.035
 69 1 8.14 4.07 0
 70 1 10.175 6.105 0
 71 1 10.175 4.07 2.035
 72 1 8.14 6.105 2.035
 73 1 12.21 4.07 0
 74 1 14.245 6.105 0
 75 1 14.245 4.07 2.035
 76 1 12.21 6.105 2.035
 77 1 16.28 4.07 0
 78 1 18.315 6.105 0
 79 1 18.315 4.07 2.035
 80 1 16.28 6.105 2.035
 81 1 20.35 4.07 0
 82 1 22.385 6.105 0
 83 1 22.385 4.07 2.035
 84 1 20.35 6.105 2.035
 85 1 24.42 4.07 0
 86 1 26.455 6.105 0
 87 1 26.455 4.07 2.035
 88 1 24.42 6.105 2.035
 89 1 28.49 4.07 0
 90 1 30.525 6.105 0
 91 1 30.525 4.07 2.035
 92 1 28.49 6.105 2.035
 93 1 32.56 4.07 0
 94 1 34.595 6.105 0
 95 1 34.595 4.07 2.035
 96 1 32.56 6.105 2.035
 97 1 36.63 4.07 0
 98 1 38.665 6.105 0
 99 1 38.665 4.07 2.035
 100 1 36.63 6.105 2.035
 101 1 40.7 4.07 0
 102 1 42.735 6.105 0
 103 1 42.735 4.07 2.035
 104 1 40.7 6.105 2.035
 105 1 44.77 4.07 0
 106 1 46.805 6.105 0
 107 1 46.805 4.07 2.035
 108 1 44.77 6.105 2.035
 109 1 48.84 4.07 0
 110 1 50.875 6.105 0
 111 1 50.875 4.07 2.035
 112 1 48.84 6.105 2.035
 113 1 52.91 4.07 0
 114 1 54.945 6.105 0
 115 1 54.945 4.07 2.035
 116 1 52.91 6.105 2.035
 117 1 56.98 4.07 0
 118 1 59.015 6.105 0
 119 1 59.015 4.07 2.035
 120 1 56.98 6.105 2.035
 121 1 0 8.14 0
 122 1 2.035 10.175 0
 123 1 2.035 8.14 2.035
 124 1 0 10.175 2.035
 125 1 4.07 8.14 0
 126 1 6.105 10.175 0
 127 1 6.105 8.14 2.035
 128 1 4.07 10.175 2.035
 129 1 8.14 8.14 0
 130 1 10.175 10.175 0
 131 1 10.175 8.14 2.035
 132 1 8.14 10.175 2.035
 133 1 12.21 8.14 0
 134 1 14.245 10.175 0
 135 1 14.245 8.14 2.035
 136 1 12.21 10.175 2.035
 137 1 16.28 8.14 0
 138 1 18.315 10.175 0
 139 1 18.315 8.14 2.035
 140 1 16.28 10.175 2.035
 141 1 20.35 8.14 0
 142 1 22.385 10.175 0
 143 1 22.385 8.14 2.035
 144 1 20.35 10.175 2.035
 145 1 24.42 8.14 0
 146 1 26.455 10.175 0
 147 1 26.455 8.14 2.035
 148 1 24.42 10.175 2.035
 149 1 28.49 8.14 0
 150 1 30.525 10.175 0
 151 1 30.525 8.14 2.035
 152 1 28.49 10.175 2.035
 153 1 32.56 8.14 0
 154 1 34.595 10.175 0
 155 1 34.595 8.14 2.035
 156 1 32.56 10.175 2.035
 157 1 36.63 8.14 0
 158 1 38.665 10.175 0
 159 1 38.665 8.14 2.035
 160 1 36.63 10.175 2.035
 161 1 40.7 8.14 0
 162 1 42.735 10.175 0
 163 1 42.735 8.14 2.035
 164 1 40.7 10.175 2.035
 165 1 44.77 8.14 0
 166 1 46.805 10.175 0
 167 1 46.805 8.14 2.035
 168 1 44.77 10.175 2.035
 169 1 48.84 8.14 0
 170 1 50.875 10.175 0
 171 1 50.875 8.14 2.035
 172 1 48.84 10.175 2.035
 173 1 52.91 8.14 0
 174 1 54.945 10.175 0
 175 1 54.945 8.14 2.035
 176 1 52.91 10.175 2.035
 177 1 56.98 8.14 0
 178 1 59.015 10.175 0
 179 1 59.015 8.14 2.035
 180 1 56.98 10.175 2.035
 181 1 0 12.21 0
 182 1 2.035 14.245 0
 183 1 2.035 12.21 2.035
 184 1 0 14.245 2.035
 185 1 4.07 12.21 0
 186 1 6.105 14.245 0
 187 1 6.105 12.21 2.035
 188 1 4.07 14.245 2.035
 189 1 8.14 12.21 0
 190 1 10.175 14.245 0
 191 1 10.175 12.21 2.035
 192 1 8.14 14.245 2.035
 193 1 12.21 12.21 0
 194 1 14.245 14.245 0
 195 1 14.245 12.21 2.035
 196 1 12.21 14.245 2.035
 197 1 16.28 12.21 0
 198 1 18.315 14.245 0
 199 1 18.315 12.21 2.035
 200 1 16.28 14.245 2.035
 201 1 20.35 12.21 0
 202 1 22.385 14.245 0
 203 1 22.385 12.21 2.035
 204 1 20.35 14.245 2.035
 205 1 24.42 12.21 0
 206 1 26.455 14.245 0
 207 1 26.455 12.21 2.035
 208 1 24.42 14.245 2.035
 209 1 28.49 12.21 0
 210 1 30.525 14.245 0
 211 1 30.525 12.21 2.035
 212 1 28.49 14.245 2.035
 213 1 32.56 12.21 0
 214 1 34.595 14.245 0
 215 1 34.595 12.21 2.035
 216 1 32.56 14.245 2.035
 217 1 36.63 12.21 0
 218 1 38.665 14.245 0
 219 1 38.665 12.21 2.035
 220 1 36.63 14.245 2.035
 221 1 40.7 12.21 0
 222 1 42.735 14.245 0
 223 1 42.735 12.21 2.035
 224 1 40.7 14.245 2.035
 225 1 44.77 12.21 0
 226 1 46.805 14.245 0
 227 1 46.805 12.21 2.035
 228 1 44.77 14.245 2.035
 229 1 48.84 12.21 0
 230 1 50.875 14.245 0
 231 1 50.875 12.21 2.035
 232 1 48.84 14.245 2.035
 233 1 52.91 12.21 0
 234 1 54.945 14.245 0
 235 1 54.945 12.21 2.035
 236 1 52.91 14.245 2.035
 237 1 56.98 12.21 0
 238 1 59.015 14.245 0
 239 1 59.015 12.21 2.035
 240 1 56.98 14.245 2.035
 241 1 0 16.28 0
 242 1 2.035 18.315 0
 243 1 2.035 16.28 2.035
 244 1 0 18.315 2.035
 245 1 4.07 16.28 0
 246 1 6.105 18.315 0
 247 1 6.105 16.28 2.035
 248 1 4.07 18.315 2.035
 249 1 8.14 16.28 0
 250 1 10.175 18.315 0
 251 1 10.175 16.28 2.035
 252 1 8.14 18.315 2.035
 253 1 12.21 16.28 0
 254 1 14.245 18.315 0
 255 1 14.245 16.28 2.035
 256 1 12.21 18.315 2.035
 257 1 16.28 16.28 0
 258 1 18.315 18.315 0
 259 1 18.315 16.28 2.035
 260 1 16.28 18.315 2.035
 261 1 20.35 16.28 0
 262 1 22.385 18.315 0
 263 1 22.385 16.28 2.035
 264 1 20.35 18.315 2.035
 265 1 24.42 16.28 0
 266 1 26.455 18.315 0
 267 1 26.455 16.28 2.035
 268 1 24.42 18.315 2.035
 269 1 28.49 16.28 0
 270 1 30.525 18.315 0
 271 1 30.525 16.28 2.035
 272 1 28.49 18.315 2.035
 273 1 32.56 16.28 0
 274 1 34.595 18.315 0
 275 1 34.595 16.28 2.035
 276 1 32.56 18.315 2.035
 277 1 36.63 16.28 0
 278 1 38.665 18.315 0
 279 1 38.665 16.28 2.035
 280 1 36.63 18.315 2.035
 281 1 40.7 16.28 0
 282 1 42.735 18.315 0
 283 1 42.735 16.28 2.035
 284 1 40.7 18.315 2.035
 285 1 44.77 16.28 0
 286 1 46.805 18.315 0
 287 1 46.805 16.28 2.035
 288 1 44.77 18.315 2.035
 289 1 48.84 16.28 0
 290 1 50.875 18.315 0
 291 1 50.875 16.28 2.035
 292 1 48.84 18.315 2.035
 293 1 52.91 16.28 0
 294 1 54.945 18.315 0
 295 1 54.945 16.28 2.035
 296 1 52.91 18.315 2.035
 297 1 56.98 16.28 0
 298 1 59.015 18.315 0
 299 1 59.015 16.28 2.035
 300 1 56.98 18.315 2.035
 301 1 0 20.35 0
 302 1 2.035 22.385 0
 303 1 2.035 20.35 2.035
 304 1 0 22.385 2.035
 305 1 4.07 20.35 0
 306 1 6.105 22.385 0
 307 1 6.105 20.35 2.035
 308 1 4.07 22.385 2.035
 309 1 8.14 20.35 0
 310 1 10.175 22.385 0
 311 1 10.175 20.35 2.035
 312 1 8.14 22.385 2.035
 313 1 12.21 20.35 0
 314 1 14.245 22.385 0
 315 1 14.245 20.35 2.035
 316 1 12.21 22.385 2.035
 317 1 16.28 20.35 0
 318 1 18.315 22.385 0
 319 1 18.315 20.35 2.035
 320 1 16.28 22.385 2.035
 321 1 20.35 20.35 0
 322 1 22.385 22.385 0
 323 1 22.385 20.35 2.035
 324 1 20.35 22.385 2.035
 325 1 24.42 20.35 0
 326 1 26.455 22.385 0
 327 1 26.455 20.35 2.035
 328 1 24.42 22.385 2.035
 329 1 28.49 20.35 0
 330 1 30.525 22.385 0
 331 1 30.525 20.35 2.035
 332 1 28.49 22.385 2.035
 333 1 32.56 20.35 0
 334 1 34.595 22.385 0
 335 1 34.595 20.35 2.035
 336 1 32.56 22.385 2.035
 337 1 36.63 20.35 0
 338 1 38.665 22.385 0
 339 1 38.665 20.35 2.035
 340 1 36.63 22.385 2.035
 341 1 40.7 20.35 0
 342 1 42.735 22.385 0
 343 1 42.735 20.35 2.035
 344 1 40.7 22.385 2.035
 345 1 44.77 20.35 0
 346 1 46.805 22.385 0
 347 1 46.805 20.35 2.035
 348 1 44.77 22.385 2.035
 349 1 48.84 20.35 0
 350 1 50.875 22.385 0
 351 1 50.875 20.35 2.035
 352 1 48.84 22.385 2.035
 353 1 52.91 20.35 0
 354 1 54.945 22.385 0
 355 1 54.945 20.35 2.035
 356 1 52.91 22.385 2.035
 357 1 56.98 20.35 0
 358 1 59.015 22.385 0
 359 1 59.015 20.35 2.035
 360 1 56.98 22.385 2.035
 361 1 0 24.42 0
 362 1 2.035 26.455 0
 363 1 2.035 24.42 2.035
 364 1 0 26.455 2.035
 365 1 4.07 24.42 0
 366 1 6.105 26.455 0
 367 1 6.105 24.42 2.035
 368 1 4.07 26.455 2.035
 369 1 8.14 24.42 0
 370 1 10.175 26.455 0
 371 1 10.175 24.42 2.035
 372 1 8.14 26.455 2.035
 373 1 12.21 24.42 0
 374 1 14.245 26.455 0
 375 1 14.245 24.42 2.035
 376 1 12.21 26.455 2.035
 377 1 16.28 24.42 0
 378 1 18.315 26.455 0
 379 1 18.315 24.42 2.035
 380 1 16.28 26.455 2.035
 381 1 20.35 24.42 0
 382 1 22.385 26.455 0
 383 1 22.385 24.42 2.035
 384 1 20.35 26.455 2.035
 385 1 24.42 24.42 0
 386 1 26.455 26.455 0
 387 1 26.455 24.42 2.035
 388 1 24.42 26.455 2.035
 389 1 28.49 24.42 0
 390 1 30.525 26.455 0
 391 1 30.525 24.42 2.035
 392 1 28.49 26.455 2.035
 393 1 32.56 24.42 0
 394 1 34.595 26.455 0
 395 1 34.595 24.42 2.035
 396 1 32.56 26.455 2.035
 397 1 36.63 24.42 0
 398 1 38.665 26.455 0
 399 1 38.665 24.42 2.035
 400 1 36.63 26.455 2.035
 401 1 40.7 24.42 0
 402 1 42.735 26.455 0
 403 1 42.735 24.42 2.035
 404 1 40.7 26.455 2.035
 405 1 44.77 24.42 0
 406 1 46.805 26.455 0
 407 1 46.805 24.42 2.035
 408 1 44.77 26.455 2.035
 409 1 48.84 24.42 0
 410 1 50.875 26.455 0
 411 1 50.875 24.42 2.035
 412 1 48.84 26.455 2.035
 413 1 52.91 24.42 0
 414 1 54.945 26.455 0
 415 1 54.945 24.42 2.035
 416 1 52.91 26.455 2.035
 417 1 56.98 24.42 0
 418 1 59.015 26.455 0
 419 1 59.015 24.42 2.035
 420 1 56.98 26.455 2.035
 421 1 0 28.49 0
 422 1 2.035 30.525 0
 423 1 2.035 28.49 2.035
 424 1 0 30.525 2.035
 425 1 4.07 28.49 0
 426 1 6.105 30.525 0
 427 1 6.105 28.49 2.035
 428 1 4.07 30.525 2.035
 429 1 8.14 28.49 0
 430 1 10.175 30.525 0
 431 1 10.175 28.49 2.035
 432 1 8.14 30.525 2.035
 433 1 12.21 28.49 0
 434 1 14.245 30.525 0
 435 1 14.245 28.49 2.035
 436 1 12.21 30.525 2.035
 437 1 16.28 28.49 0
 438 1 18.315 30.525 0
 439 1 18.315 28.49 2.035
 440 1 16.28 30.525 2.035
 441 1 20.35 28.49 0
 442 1 22.385 30.525 0
 443 1 22.385 28.49 2.035
 444 1 20.35 30.525 2.035
 445 1 24.42 28.49 0
 446 1 26.455 30.525 0
 447 1 26.455 28.49 2.035
 448 1 24.42 30.525 2.035
 449 1 28.49 28.49 0
 450 1 30.525 30.525 0
 451 1 30.525 28.49 2.035
 452 1 28.49 30.525 2.035
 453 1 32.56 28.49 0
 454 1 34.595 30.525 0
 455 1 34.595 28.49 2.035
 456 1 32.56 30.525 2.035
 457 1 36.63 28.49 0
 458 1 38.665 30.525 0
 459 1 38.665 28.49 2.035
 460 1 36.63 30.525 2.035
 461 1 40.7 28.49 0
 462 1 42.735 30.525 0
 463 1 42.735 28.49 2.035
 464 1 40.7 30.525 2.035
 465 1 44.77 28.49 0
 466 1 46.805 30.525 0
 467 1 46.805 28.49 2.035
 468 1 44.77 30.525 2.035
 469 1 48.84 28.49 0
 470 1 50.875 30.525 0
 471 1 50.875 28.49 2.035
 472 1 48.84 30.525 2.035
 473 1 52.91 28.49 0
 474 1 54.945 30.525 0
 475 1 54.945 28.49 2.035
 476 1 52.91 30.525 2.035
 477 1 56.98 28.49 0
 478 1 59.015 30.525 0
 479 1 59.015 28.49 2.035
 480 1 56.98 30.525 2.035
 481 1 0 32.56 0
 482 1 2.035 34.595 0
 483 1 2.035 32.56 2.035
 484 1 0 34.595 2.035
 485 1 4.07 32.56 0
 486 1 6.105 34.595 0
 487 1 6.105 32.56 2.035
 488 1 4.07 34.595 2.035
 489 1 8.14 32.56 0
 490 1 10.175 34.595 0
 491 1 10.175 32.56 2.035
 492 1 8.14 34.595 2.035
 493 1 12.21 32.56 0
 494 1 14.245 34.595 0
 495 1 14.245 32.56 2.035
 496 1 12.21 34.595 2.035
 497 1 16.28 32.56 0
 498 1 18.315 34.595 0
 499 1 18.315 32.56 2.035
 500 1 16.28 34.595 2.035
 501 1 20.35 32.56 0
 502 1 22.385 34.595 0
 503 1 22.385 32.56 2.035
 504 1 20.35 34.595 2.035
 505 1 24.42 32.56 0
 506 1 26.455 34.595 0
 507 1 26.455 32.56 2.035
 508 1 24.42 34.595 2.035
 509 1 28.49 32.56 0
 510 1 30.525 34.595 0
 511 1 30.525 32.56 2.035
 512 1 28.49 34.595 2.035
 513 1 32.56 32.56 0
 514 1 34.595 34.595 0
 515 1 34.595 32.56 2.035
 516 1 32.56 34.595 2.035
 517 1 36.63 32.56 0
 518 1 38.665 34.595 0
 519 1 38.665 32.56 2.035
 520 1 36.63 34.595 2.035
 521 1 40.7 32.56 0
 522 1 42.735 34.595 0
 523 1 42.735 32.56 2.035
 524 1 40.7 34.595 2.035
 525 1 44.77 32.56 0
 526 1 46.805 34.595 0
 527 1 46.805 32.56 2.035
 528 1 44.77 34.595 2.035
 529 1 48.84 32.56 0
 530 1 50.875 34.595 0
 531 1 50.875 32.56 2.035
 532 1 48.84 34.595 2.035
 533 1 52.91 32.56 0
 534 1 54.945 34.595 0
 535 1 54.945 32.56 2.035
 536 1 52.91 34.595 2.035
 537 1 56.98 32.56 0
 538 1 59.015 34.595 0
 539 1 59.015 32.56 2.035
 540 1 56.98 34.595 2.035
 541 1 0 36.63 0
 542 1 2.035 38.665 0
 543 1 2.035 36.63 2.035
 544 1 0 38.665 2.035
 545 1 4.07 36.63 0
 546 1 6.105 38.665 0
 547 1 6.105 36.63 2.035
 548 1 4.07 38.665 2.035
 549 1 8.14 36.63 0
 550 1 10.175 38.665 0
 551 1 10.175 36.63 2.035
 552 1 8.14 38.665 2.035
 553 1 12.21 36.63 0
 554 1 14.245 38.665 0
 555 1 14.245 36.63 2.035
 556 1 12.21 38.665 2.035
 557 1 16.28 36.63 0
 558 1 18.315 38.665 0
 559 1 18.315 36.63 2.035
 560 1 16.28 38.665 2.035
 561 1 20.35 36.63 0
 562 1 22.385 38.665 0
 563 1 22.385 36.63 2.035
 564 1 20.35 38.665 2.035
 565 1 24.42 36.63 0
 566 1 26.455 38.665 0
 567 1 26.455 36.63 2.035
 568 1 24.42 38.665 2.035
 569 1 28.49 36.63 0
 570 1 30.525 38.665 0
 571 1 30.525 36.63 2.035
 572 1 28.49 38.665 2.035
 573 1 32.56 36.63 0
 574 1 34.595 38.665 0
 575 1 34.595 36.63 2.035
 576 1 32.56 38.665 2.035
 577 1 36.63 36.63 0
 578 1 38.665 38.665 0
 579 1 38.665 36.63 2.035
 580 1 36.63 38.665 2.035
 581 1 40.7 36.63 0
 582 1 42.735 38.665 0
 583 1 42.735 36.63 2.035
 584 1 40.7 38.665 2.035
 585 1 44.77 36.63 0
 586 1 46.805 38.665 0
 587 1 46.805 36.63 2.035
 588 1 44.77 38.665 2.035
 589 1 48.84 36.63 0
 590 1 50.875 38.665 0
 591 1 50.875 36.63 2.035
 592 1 48.84 38.665 2.035
 593 1 52.91 36.63 0
 594 1 54.945 38.665 0
 595 1 54.945 36.63 2.035
 596 1 52.91 38.665 2.035
 597 1 56.98 36.63 0
 598 1 59.015 38.665 0
 599 1 59.015 36.63 2.035
 600 1 56.98 38.665 2.035
 601 1 0 40.7 0
 602 1 2.035 42.735 0
 603 1 2.035 40.7 2.035
 604 1 0 42.735 2.035
 605 1 4.07 40.7 0
 606 1 6.105 42.735 0
 607 1 6.105 40.7 2.035
 608 1 4.07 42.735 2.035
 609 1 8.14 40.7 0
 610 1 10.175 42.735 0
 611 1 10.175 40.7 2.035
 612 1 8.14 42.735 2.035
 613 1 12.21 40.7 0
 614 1 14.245 42.735 0
 615 1 14.245 40.7 2.035
 616 1 12.21 42.735 2.035
 617 1 16.28 40.7 0
 618 1 18.315 42.735 0
 619 1 18.315 40.7 2.035
 620 1 16.28 42.735 2.035
 621 1 20.35 40.7 0
 622 1 22.385 42.735 0
 623 1 22.385 40.7 2.035
 624 1 20.35 42.735 2.035
 625 1 24.42 40.7 0
 626 1 26.455 42.735 0
 627 1 26.455 40.7 2.035
 628 1 24.42 42.735 2.035
 629 1 28.49 40.7 0
 630 1 30.525 42.735 0
 631 1 30.525 40.7 2.035
 632 1 28.49 42.735 2.035
 633 1 32.56 40.7 0
 634 1 34.595 42.735 0
 635 1 34.595 40.7 2.035
 636 1 32.56 42.735 2.035
 637 1 36.63 40.7 0
 638 1 38.665 42.735 0
 639 1 38.665 40.7 2.035
 640 1 36.63 42.735 2.035
 641 1 40.7 40.7 0
 642 1 42.735 42.735 0
 643 1 42.735 40.7 2.035
 644 1 40.7 42.735 2.035
 645 1 44.77 40.7 0
 646 1 46.805 42.735 0
 647 1 46.805 40.7 2.035
 648 1 44.77 42.735 2.035
 649 1 48.84 40.7 0
 650 1 50.875 42.735 0
 651 1 50.875 40.7 2.035
 652 1 48.84 42.735 2.035
 653 1 52.91 40.7 0
 654 1 54.945 42.735 0
 655 1 54.945 40.7 2.035
 656 1 52.91 42.735 2.035
 657 1 56.98 40.7 0
 658 1 59.015 42.735 0
 659 1 59.015 40.7 2.035
 660 1 56.98 42.735 2.035
 661 1 0 44.77 0
 662 1 2.035 46.805 0
 663 1 2.035 44.77 2.035
 664 1 0 46.805 2.035
 665 1 4.07 44.77 0
 666 1 6.105 46.805 0
 667 1 6.105 44.77 2.035
 668 1 4.07 46.805 2.035
 669 1 8.14 44.77 0
 670 1 10.175 46.805 0
 671 1 10.175 44.77 2.035
 672 1 8.14 46.805 2.035
 673 1 12.21 44.77 0
 674 1 14.245 46.805 0
 675 1 14.245 44.77 2.035
 676 1 12.21 46.805 2.035
 677 1 16.28 44.77 0
 678 1 18.315 46.805 0
 679 1 18.315 44.77 2.035
 680 1 16.28 46.805 2.035
 681 1 20.35 44.77 0
 682 1 22.385 46.805 0
 683 1 22.385 44.77 2.035
 684 1 20.35 46.805 2.035
 685 1 24.42 44.77 0
 686 1 26.455 46.805 0
 687 1 26.455 44.77 2.035
 688 1 24.42 46.805 2.035
 689 1 28.49 44.77 0
 690 1 30.525 46.805 0
 691 1 30.525 44.77 2.035
 692 1 28.49 46.805 2.035
 693 1 32.56 44.77 0
 694 1 34.595 46.805 0
 695 1 34.595 44.77 2.035
 696 1 32.56 46.805 2.035
 697 1 36.63 44.77 0
 698 1 38.665 46.805 0
 699 1 38.665 44.77 2.035
 700 1 36.63 46.805 2.035
 701 1 40.7 44.77 0
 702 1 42.735 46.805 0
 703 1 42.735 44.77 2.035
 704 1 40.7 46.805 2.035
 705 1 44.77 44.77 0
 706 1 46.805 46.805 0
 707 1 46.805 44.77 2.035
 708 1 44.77 46.805 2.035
 709 1 48.84 44.77 0
 710 1 50.875 46.805 0
 711 1 50.875 44.77 2.035
 712 1 48.84 46.805 2.035
 713 1 52.91 44.77 0
 714 1 54.945 46.805 0
 715 1 54.945 44.77 2.035
 716 1 52.91 46.805 2.035
 717 1 56.98 44.77 0
 718 1 59.015 46.805 0
 719 1 59.015 44.77 2.035
 720 1 56.98 46.805 2.035
 721 1 0 48.84 0
 722 1 2.035 50.875 0
 723 1 2.035 48.84 2.035
 724 1 0 50.875 2.035
 725 1 4.07 48.84 0
 726 1 6.105 50.875 0
 727 1 6.105 48.84 2.035
 728 1 4.07 50.875 2.035
 729 1 8.14 48.84 0
 730 1 10.175 50.875 0
 731 1 10.175 48.84 2.035
 732 1 8.14 50.875 2.035
 733 1 12.21 48.84 0
 734 1 14.245 50.875 0
 735 1 14.245 48.84 2.035
 736 1 12.21 50.875 2.035
 737 1 16.28 48.84 0
 738 1 18.315 50.875 0
 739 1 18.315 48.84 2.035
 740 1 16.28 50.875 2.035
 741 1 20.35 48.84 0
 742 1 22.385 50.875 0
 743 1 22.385 48.84 2.035
 744 1 20.35 50.875 2.035
 745 1 24.42 48.84 0
 746 1 26.455 50.875 0
 747 1 26.455 48.84 2.035
 748 1 24.42 50.875 2.035
 749 1 28.49 48.84 0
 750 1 30.525 50.875 0
 751 1 30.525 48.84 2.035
 752 1 28.49 50.875 2.035
 753 1 32.56 48.84 0
 754 1 34.595 50.875 0
 755 1 34.595 48.84 2.035
 756 1 32.56 50.875 2.035
 757 1 36.63 48.84 0
 758 1 38.665 50.875 0
 759 1 38.665 48.84 2.035
 760 1 36.63 50.875 2.035
 761 1 40.7 48.84 0
 762 1 42.735 50.875 0
 763 1 42.735 48.84 2.035
 764 1 40.7 50.875 2.035
 765 1 44.77 48.84 0
 766 1 46.805 50.875 0
 767 1 46.805 48.84 2.035
 768 1 44.77 50.875 2.035
 769 1 48.84 48.84 0
 770 1 50.875 50.875 0
 771 1 50.875 48.84 2.035
 772 1 48.84 50.875 2.035
 773 1 52.91 48.84 0
 774 1 54.945 50.875 0
 775 1 54.945 48.84 2.035
 776 1 52.91 50.875 2.035
 777 1 56.98 48.84 0
 778 1 59.015 50.875 0
 779 1 59.015 48.84 2.035
 780 1 56.98 50.875 2.035
 781 1 0 52.91 0
 782 1 2.035 54.945 0
 783 1 2.035 52.91 2.035
 784 1 0 54.945 2.035
 785 1 4.07 52.91 0
 786 1 6.105 54.945 0
 787 1 6.105 52.91 2.035
 788 1 4.07 54.945 2.035
 789 1 8.14 52.91 0
 790 1 10.175 54.945 0
 791 1 10.175 52.91 2.035
 792 1 8.14 54.945 2.035
 793 1 12.21 52.91 0
 794 1 14.245 54.945 0
 795 1 14.245 52.91 2.035
 796 1 12.21 54.945 2.035
 797 1 16.28 52.91 0
 798 1 18.315 54.945 0
 799 1 18.315 52.91 2.035
 800 1 16.28 54.945 2.035
 801 1 20.35 52.91 0
 802 1 22.385 54.945 0
 803 1 22.385 52.91 2.035
 804 1 20.35 54.945 2.035
 805 1 24.42 52.91 0
 806 1 26.455 54.945 0
 807 1 26.455 52.91 2.035
 808 1 24.42 54.945 2.035
 809 1 28.49 52.91 0
 810 1 30.525 54.945 0
 811 1 30.525 52.91 2.035
 812 1 28.49 54.945 2.035
 813 1 32.56 52.91 0
 814 1 34.595 54.945 0
 815 1 34.595 52.91 2.035
 816 1 32.56 54.945 2.035
 817 1 36.63 52.91 0
 818 1 38.665 54.945 0
 819 1 38.665 52.91 2.035
 820 1 36.63 54.945 2.035
 821 1 40.7 52.91 0
 822 1 42.735 54.945 0
 823 1 42.735 52.91 2.035
 824 1 40.7 54.945 2.035
 825 1 44.77 52.91 0
 826 1 46.805 54.945 0
 827 1 46.805 52.91 2.035
 828 1 44.77 54.945 2.035
 829 1 48.84 52.91 0
 830 1 50.875 54.945 0
 831 1 50.875 52.91 2.035
 832 1 48.84 54.945 2.035
 833 1 52.91 52.91 0
 834 1 54.945 54.945 0
 835 1 54.945 52.91 2.035
 836 1 52.91 54.945 2.035
 837 1 56.98 52.91 0
 838 1 59.015 54.945 0
 839 1 59.015 52.91 2.035
 840 1 56.98 54.945 2.035
 841 1 0 56.98 0
 842 1 2.035 59.015 0
 843 1 2.035 56.98 2.035
 844 1 0 59.015 2.035
 845 1 4.07 56.98 0
 846 1 6.105 59.015 0
 847 1 6.105 56.98 2.035
 848 1 4.07 59.015 2.035
 849 1 8.14 56.98 0
 850 1 10.175 59.015 0
 851 1 10.175 56.98 2.035
 852 1 8.14 59.015 2.035
 853 1 12.21 56.98 0
 854 1 14.245 59.015 0
 855 1 14.245 56.98 2.035
 856 1 12.21 59.015 2.035
 857 1 16.28 56.98 0
 858 1 18.315 59.015 0
 859 1 18.315 56.98 2.035
 860 1 16.28 59.015 2.035
 861 1 20.35 56.98 0
 862 1 22.385 59.015 0
 863 1 22.385 56.98 2.035
 864 1 20.35 59.015 2.035
 865 1 24.42 56.98 0
 866 1 26.455 59.015 0
 867 1 26.455 56.98 2.035
 868 1 24.42 59.015 2.035
 869 1 28.49 56.98 0
 870 1 30.525 59.015 0
 871 1 30.525 56.98 2.035
 872 1 28.49 59.015 2.035
 873 1 32.56 56.98 0
 874 1 34.595 59.015 0
 875 1 34.595 56.98 2.035
 876 1 32.56 59.015 2.035
 877 1 36.63 56.98 0
 878 1 38.665 59.015 0
 879 1 38.665 56.98 2.035
 880 1 36.63 59.015 2.035
 881 1 40.7 56.98 0
 882 1 42.735 59.015 0
 883 1 42.735 56.98 2.035
 884 1 40.7 59.015 2.035
 885 1 44.77 56.98 0
 886 1 46.805 59.015 0
 887 1 46.805 56.98 2.035
 888 1 44.77 59.015 2.035
 889 1 48.84 56.98 0
 890 1 50.875 59.015 0
 891 1 50.875 56.98 2.035
 892 1 48.84 59.015 2.035
 893 1 52.91 56.98 0
 894 1 54.945 59.015 0
 895 1 54.945 56.98 2.035
 896 1 52.91 59.015 2.035
 897 1 56.98 56.98 0
 898 1 59.015 59.015 0
 899 1 59.015 56.98 2.035
 900 1 56.98 59.015 2.035
 901 1 0 0 4.07
 902 1 2.035 2.035 4.07
 903 1 2.035 0 6.105
 904 1 0 2.035 6.105
 905 1 4.07 0 4.07
 906 1 6.105 2.035 4.07
 907 1 6.105 0 6.105
 908 1 4.07 2.035 6.105
 909 1 8.14 0 4.07
 910 1 10.175 2.035 4.07
 911 1 10.175 0 6.105
 912 1 8.14 2.035 6.105
 913 1 12.21 0 4.07
 914 1 14.245 2.035 4.07
 915 1 14.245 0 6.105
 916 1 12.21 2.035 6.105
 917 1 16.28 0 4.07
 918 1 18.315 2.035 4.07
 919 1 18.315 0 6.105
 920 1 16.28 2.035 6.105
 921 1 20.35 0 4.07
 922 1 22.385 2.035 4.07
 923 1 22.385 0 6.105
 924 1 20.35 2.035 6.105
 925 1 24.42 0 4.07
 926 1 26.455 2.035 4.07
 927 1 26.455 0 6.105
 928 1 24.42 2.035 6.105
 929 1 28.49 0 4.07
 930 1 30.525 2.035 4.07
 931 1 30.525 0 6.105
 932 1 28.49 2.035 6.105
 933 1 32.56 0 4.07
 934 1 34.595 2.035 4.07
 935 1 34.595 0 6.105
 936 1 32.56 2.035 6.105
 937 1 36.63 0 4.07
 938 1 38.665 2.035 4.07
 939 1 38.665 0 6.105
 940 1 36.63 2.035 6.105
 941 1 40.7 0 4.07
 942 1 42.735 2.035 4.07
 943 1 42.735 0 6.105
 944 1 40.7 2.035 6.105
 945 1 44.77 0 4.07
 946 1 46.805 2.035 4.07
 947 1 46.805 0 6.105
 948 1 44.77 2.035 6.105
 949 1 48.84 0 4.07
 950 1 50.875 2.035 4.07
 951 1 50.875 0 6.105
 952 1 48.84 2.035 6.105
 953 1 52.91 0 4.07
 954 1 54.945 2.035 4.07
 955 1 54.945 0 6.105
 956 1 52.91 2.035 6.105
 957 1 56.98 0 4.07
 958 1 59.015 2.035 4.07
 959 1 59.015 0 6.105
 960 1 56.98 2.035 6.105
 961 1 0 4.07 4.07
 962 1 2.035 6.105 4.07
 963 1 2.035 4.07 6.105
 964 1 0 6.105 6.105
 965 1 4.07 4.07 4.07
 966 1 6.105 6.105 4.07
 967 1 6.105 4.07 6.105
 968 1 4.07 6.105 6.105
 969 1 8.14 4.07 4.07
 970 1 10.175 6.105 4.07
 971 1 10.175 4.07 6.105
 972 1 8.14 6.105 6.105
 973 1 12.21 4.07 4.07
 974 1 14.245 6.105 4.07
 975 1 14.245 4.07 6.105
 976 1 12.21 6.105 6.105
 977 1 16.28 4.07 4.07
 978 1 18.315 6.105 4.07
 979 1 18.315 4.07 6.105
 980 1 16.28 6.105 6.105
 981 1 20.35 4.07 4.07
 982 1 22.385 6.105 4.07
 983 1 22.385 4.07 6.105
 984 1 20.35 6.105 6.105
 985 1 24.42 4.07 4.07
 986 1 26.455 6.105 4.07
 987 1 26.455 4.07 6.105
 988 1 24.42 6.105 6.105
 989 1 28.49 4.07 4.07
 990 1 30.525 6.105 4.07
 991 1 30.525 4.07 6.105
 992 1 28.49 6.105 6.105
 993 1 32.56 4.07 4.07
 994 1 34.595 6.105 4.07
 995 1 34.595 4.07 6.105
 996 1 32.56 6.105 6.105
 997 1 36.63 4.07 4.07
 998 1 38.665 6.105 4.07
 999 1 38.665 4.07 6.105
 1000 1 36.63 6.105 6.105
 1001 1 40.7 4.07 4.07
 1002 1 42.735 6.105 4.07
 1003 1 42.735 4.07 6.105
 1004 1 40.7 6.105 6.105
 1005 1 44.77 4.07 4.07
 1006 1 46.805 6.105 4.07
 1007 1 46.805 4.07 6.105
 1008 1 44.77 6.105 6.105
 1009 1 48.84 4.07 4.07
 1010 1 50.875 6.105 4.07
 1011 1 50.875 4.07 6.105
 1012 1 48.84 6.105 6.105
 1013 1 52.91 4.07 4.07
 1014 1 54.945 6.105 4.07
 1015 1 54.945 4.07 6.105
 1016 1 52.91 6.105 6.105
 1017 1 56.98 4.07 4.07
 1018 1 59.015 6.105 4.07
 1019 1 59.015 4.07 6.105
 1020 1 56.98 6.105 6.105
 1021 1 0 8.14 4.07
 1022 1 2.035 10.175 4.07
 1023 1 2.035 8.14 6.105
 1024 1 0 10.175 6.105
 1025 1 4.07 8.14 4.07
 1026 1 6.105 10.175 4.07
 1027 1 6.105 8.14 6.105
 1028 1 4.07 10.175 6.105
 1029 1 8.14 8.14 4.07
 1030 1 10.175 10.175 4.07
 1031 1 10.175 8.14 6.105
 1032 1 8.14 10.175 6.105
 1033 1 12.21 8.14 4.07
 1034 1 14.245 10.175 4.07
 1035 1 14.245 8.14 6.105
 1036 1 12.21 10.175 6.105
 1037 1 16.28 8.14 4.07
 1038 1 18.315 10.175 4.07
 1039 1 18.315 8.14 6.105
 1040 1 16.28 10.175 6.105
 1041 1 20.35 8.14 4.07
 1042 1 22.385 10.175 4.07
 1043 1 22.385 8.14 6.105
 1044 1 20.35 10.175 6.105
 1045 1 24.42 8.14 4.07
 1046 1 26.455 10.175 4.07
 1047 1 26.455 8.14 6.105
 1048 1 24.42 10.175 6.105
 1049 1 28.49 8.14 4.07
 1050 1 30.525 10.175 4.07
 1051 1 30.525 8.14 6.105
 1052 1 28.49 10.175 6.105
 1053 1 32.56 8.14 4.07
 1054 1 34.595 10.175 4.07
 1055 1 34.595 8.14 6.105
 1056 1 32.56 10.175 6.105
 1057 1 36.63 8.14 4.07
 1058 1 38.665 10.175 4.07
 1059 1 38.665 8.14 6.105
 1060 1 36.63 10.175 6.105
 1061 1 40.7 8.14 4.07
 1062 1 42.735 10.175 4.07
 1063 1 42.735 8.14 6.105
 1064 1 40.7 10.175 6.105
 1065 1 44.77 8.14 4.07
 1066 1 46.805 10.175 4.07
 1067 1 46.805 8.14 6.105
 1068 1 44.77 10.175 6.105
 1069 1 48.84 8.14 4.07
 1070 1 50.875 10.175 4.07
 1071 1 50.875 8.14 6.105
 1072 1 48.84 10.175 6.105
 1073 1 52.91 8.14 4.07
 1074 1 54.945 10.175 4.07
 1075 1 54.945 8.14 6.105
 1076 1 52.91 10.175 6.105
 1077 1 56.98 8.14 4.07
 1078 1 59.015 10.175 4.07
 1079 1 59.015 8.14 6.105
 1080 1 56.98 10.175 6.105
 1081 1 0 12.21 4.07
 1082 1 2.035 14.245 4.07
 1083 1 2.035 12.21 6.105
 1084 1 0 14.245 6.105
 1085 1 4.07 12.21 4.07
 1086 1 6.105 14.245 4.07
 1087 1 6.105 12.21 6.105
 1088 1 4.07 14.245 6.105
 1089 1 8.14 12.21 4.07
 1090 1 10.175 14.245 4.07
 1091 1 10.175 12.21 6.105
 1092 1 8.14 14.245 6.105
 1093 1 12.21 12.21 4.07
 1094 1 14.245 14.245 4.07
 1095 1 14.245 12.21 6.105
 1096 1 12.21 14.245 6.105
 1097 1 16.28 12.21 4.07
 1098 1 18.315 14.245 4.07
 1099 1 18.315 12.21 6.105
 1100 1 16.28 14.245 6.105
 1101 1 20.35 12.21 4.07
 1102 1 22.385 14.245 4.07
 1103 1 22.385 12.21 6.105
 1104 1 20.35 14.245 6.105
 1105 1 24.42 12.21 4.07
 1106 1 26.455 14.245 4.07
 1107 1 26.455 12.21 6.105
 1108 1 24.42 14.245 6.105
 1109 1 28.49 12.21 4.07
 1110 1 30.525 14.245 4.07
 1111 1 30.525 12.21 6.105
 1112 1 28.49 14.245 6.105
 1113 1 32.56 12.21 4.07
 1114 1 34.595 14.245 4.07
 1115 1 34.595 12.21 6.105
 1116 1 32.56 14.245 6.105
 1117 1 36.63 12.21 4.07
 1118 1 38.665 14.245 4.07
 1119 1 38.665 12.21 6.105
 1120 1 36.63 14.245 6.105
 1121 1 40.7 12.21 4.07
 1122 1 42.735 14.245 4.07
 1123 1 42.735 12.21 6.105
 1124 1 40.7 14.245 6.105
 1125 1 44.77 12.21 4.07
 1126 1 46.805 14.245 4.07
 1127 1 46.805 12.21 6.105
 1128 1 44.77 14.245 6.105
 1129 1 48.84 12.21 4.07
 1130 1 50.875 14.245 4.07
 1131 1 50.875 12.21 6.105
 1132 1 48.84 14.245 6.105
 1133 1 52.91 12.21 4.07
 1134 1 54.945 14.245 4.07
 1135 1 54.945 12.21 6.105
 1136 1 52.91 14.245 6.105
 1137 1 56.98 12.21 4.07
 1138 1 59.015 14.245 4.07
 1139 1 59.015 12.21 6.105
 1140 1 56.98 14.245 6.105
 1141 1 0 16.28 4.07
 1142 1 2.035 18.315 4.07
 1143 1 2.035 16.28 6.105
 1144 1 0 18.315 6.105
 1145 1 4.07 16.28 4.07
 1146 1 6.105 18.315 4.07
 1147 1 6.105 16.28 6.105
 1148 1 4.07 18.315 6.105
 1149 1 8.14 16.28 4.07
 1150 1 10.175 18.315 4.07
 1151 1 10.175 16.28 6.105
 1152 1 8.14 18.315 6.105
 1153 1 12.21 16.28 4.07
 1154 1 14.245 18.315 4.07
 1155 1 14.245 16.28 6.105
 1156 1 12.21 18.315 6.105
 1157 1 16.28 16.28 4.07
 1158 1 18.315 18.315 4.07
 1159 1 18.315 16.28 6.105
 1160 1 16.28 18.315 6.105
 1161 1 20.35 16.28 4.07
 1162 1 22.385 18.315 4.07
 1163 1 22.385 16.28 6.105
 1164 1 20.35 18.315 6.105
 1165 1 24.42 16.28 4.07
 1166 1 26.455 18.315 4.07
 1167 1 26.455 16.28 6.105
 1168 1 24.42 18.315 6.105
 1169 1 28.49 16.28 4.07
 1170 1 30.525 18.315 4.07
 1171 1 30.525 16.28 6.105
 1172 1 28.49 18.315 6.105
 1173 1 32.56 16.28 4.07
 1174 1 34.595 18.315 4.07
 1175 1 34.595 16.28 6.105
 1176 1 32.56 18.315 6.105
 1177 1 36.63 16.28 4.07
 1178 1 38.665 18.315 4.07
 1179 1 38.665 16.28 6.105
 1180 1 36.63 18.315 6.105
 1181 1 40.7 16.28 4.07
 1182 1 42.735 18.315 4.07
 1183 1 42.735 16.28 6.105
 1184 1 40.7 18.315 6.105
 1185 1 44.77 16.28 4.07
 1186 1 46.805 18.315 4.07
 1187 1 46.805 16.28 6.105
 1188 1 44.77 18.315 6.105
 1189 1 48.84 16.28 4.07
 1190 1 50.875 18.315 4.07
 1191 1 50.875 16.28 6.105
 1192 1 48.84 18.315 6.105
 1193 1 52.91 16.28 4.07
 1194 1 54.945 18.315 4.07
 1195 1 54.945 16.28 6.105
 1196 1 52.91 18.315 6.105
 1197 1 56.98 16.28 4.07
 1198 1 59.015 18.315 4.07
 1199 1 59.015 16.28 6.105
 1200 1 56.98 18.315 6.105
 1201 1 0 20.35 4.07
 1202 1 2.035 22.385 4.07
 1203 1 2.035 20.35 6.105
 1204 1 0 22.385 6.105
 1205 1 4.07 20.35 4.07
 1206 1 6.105 22.385 4.07
 1207 1 6.105 20.35 6.105
 1208 1 4.07 22.385 6.105
 1209 1 8.14 20.35 4.07
 1210 1 10.175 22.385 4.07
 1211 1 10.175 20.35 6.105
 1212 1 8.14 22.385 6.105
 1213 1 12.21 20.35 4.07
 1214 1 14.245 22.385 4.07
 1215 1 14.245 20.35 6.105
 1216 1 12.21 22.385 6.105
 1217 1 16.28 20.35 4.07
 1218 1 18.315 22.385 4.07
 1219 1 18.315 20.35 6.105
 1220 1 16.28 22.385 6.105
 1221 1 20.35 20.35 4.07
 1222 1 22.385 22.385 4.07
 1223 1 22.385 20.35 6.105
 1224 1 20.35 22.385 6.105
 1225 1 24.42 20.35 4.07
 1226 1 26.455 22.385 4.07
 1227 1 26.455 20.35 6.105
 1228 1 24.42 22.385 6.105
 1229 1 28.49 20.35 4.07
 1230 1 30.525 22.385 4.07
 1231 1 30.525 20.35 6.105
 1232 1 28.49 22.385 6.105
 1233 1 32.56 20.35 4.07
 1234 1 34.595 22.385 4.07
 1235 1 34.595 20.35 6.105
 1236 1 32.56 22.385 6.105
 1237 1 36.63 20.35 4.07
 1238 1 38.665 22.385 4.07
 1239 1 38.665 20.35 6.105
 1240 1 36.63 22.385 6.105
 1241 1 40.7 20.35 4.07
 1242 1 42.735 22.385 4.07
 1243 1 42.735 20.35 6.105
 1244 1 40.7 22.385 6.105
 1245 1 44.77 20.35 4.07
 1246 1 46.805 22.385 4.07
 1247 1 46.805 20.35 6.105
 1248 1 44.77 22.385 6.105
 1249 1 48.84 20.35 4.07
 1250 1 50.875 22.385 4.07
 1251 1 50.875 20.35 6.105
 1252 1 48.84 22.385 6.105