ITEM: TIMESTEP
0
ITEM: NUMBER OF ATOMS
3465
ITEM: BOX BOUNDS pp pp pp
-11.1925 70.2075
-28.0598 87.0572
-50.3637 64.7533
ITEM: ATOMS id type xu yu zu
 1 1 0 54.6806 0
 2 1 0 57.5585 0
 3 1 0 57.5585 2.87792
 4 1 2.035 58.9975 1.43896
 5 1 2.035 56.1195 1.43896
 6 1 2.035 58.9975 4.31689
 7 1 0 48.9247 0
 8 1 0 51.8026 0
 9 1 0 51.8026 2.87792
 10 1 2.035 53.2416 1.43896
 11 1 2.035 50.3637 1.43896
 12 1 0 54.6806 2.87792
 13 1 0 54.6806 5.75585
 14 1 2.035 56.1195 4.31689
 15 1 2.035 53.2416 4.31689
 16 1 0 57.5585 5.75585
 17 1 0 57.5585 8.63377
 18 1 2.035 58.9975 7.19481
 19 1 2.035 56.1195 7.19481
 20 1 2.035 58.9975 10.0727
 21 1 0 43.1689 0
 22 1 0 46.0468 0
 23 1 0 46.0468 2.87792
 24 1 2.035 47.4858 1.43896
 25 1 2.035 44.6078 1.43896
 26 1 0 48.9247 2.87792
 27 1 0 48.9247 5.75585
 28 1 2.035 50.3637 4.31689
 29 1 2.035 47.4858 4.31689
 30 1 0 51.8026 5.75585
 31 1 0 51.8026 8.63377
 32 1 2.035 53.2416 7.19481
 33 1 2.035 50.3637 7.19481
 34 1 0 54.6806 8.63377
 35 1 0 54.6806 11.5117
 36 1 2.035 56.1195 10.0727
 37 1 2.035 53.2416 10.0727
 38 1 0 57.5585 11.5117
 39 1 0 57.5585 14.3896
 40 1 2.035 58.9975 12.9507
 41 1 2.035 56.1195 12.9507
 42 1 0 37.413 0
 43 1 0 40.2909 0
 44 1 0 40.2909 2.87792
 45 1 2.035 41.7299 1.43896
 46 1 2.035 38.852 1.43896
 47 1 0 43.1689 2.87792
 48 1 0 43.1689 5.75585
 49 1 2.035 44.6078 4.31689
 50 1 2.035 41.7299 4.31689
 51 1 0 46.0468 5.75585
 52 1 0 46.0468 8.63377
 53 1 2.035 47.4858 7.19481
 54 1 2.035 44.6078 7.19481
 55 1 0 48.9247 8.63377
 56 1 0 48.9247 11.5117
 57 1 2.035 50.3637 10.0727
 58 1 2.035 47.4858 10.0727
 59 1 0 51.8026 11.5117
 60 1 0 51.8026 14.3896
 61 1 2.035 53.2416 12.9507
 62 1 2.035 50.3637 12.9507
 63 1 0 54.6806 14.3896
 64 1 0 31.6572 0
 65 1 0 34.5351 0
 66 1 0 34.5351 2.87792
 67 1 2.035 35.9741 1.43896
 68 1 2.035 33.0961 1.43896
 69 1 0 37.413 2.87792
 70 1 0 37.413 5.75585
 71 1 2.035 38.852 4.31689
 72 1 2.035 35.9741 4.31689
 73 1 0 40.2909 5.75585
 74 1 0 40.2909 8.63377
 75 1 2.035 41.7299 7.19481
 76 1 2.035 38.852 7.19481
 77 1 0 43.1689 8.63377
 78 1 0 43.1689 11.5117
 79 1 2.035 44.6078 10.0727
 80 1 2.035 41.7299 10.0727
 81 1 0 46.0468 11.5117
 82 1 0 46.0468 14.3896
 83 1 2.035 47.4858 12.9507
 84 1 2.035 44.6078 12.9507
 85 1 0 48.9247 14.3896
 86 1 0 25.9013 0
 87 1 0 28.7792 0
 88 1 0 28.7792 2.87792
 89 1 2.035 30.2182 1.43896
 90 1 2.035 27.3403 1.43896
 91 1 0 31.6572 2.87792
 92 1 0 31.6572 5.75585
 93 1 2.035 33.0961 4.31689
 94 1 2.035 30.2182 4.31689
 95 1 0 34.5351 5.75585
 96 1 0 34.5351 8.63377
 97 1 2.035 35.9741 7.19481
 98 1 2.035 33.0961 7.19481
 99 1 0 37.413 8.63377
 100 1 0 37.413 11.5117
 101 1 2.035 38.852 10.0727
 102 1 2.035 35.9741 10.0727
 103 1 0 40.2909 11.5117
 104 1 0 40.2909 14.3896
 105 1 2.035 41.7299 12.9507
 106 1 2.035 38.852 12.9507
 107 1 0 43.1689 14.3896
 108 1 0 20.1455 0
 109 1 0 23.0234 0
 110 1 0 23.0234 2.87792
 111 1 2.035 24.4624 1.43896
 112 1 2.035 21.5844 1.43896
 113 1 0 25.9013 2.87792
 114 1 0 25.9013 5.75585
 115 1 2.035 27.3403 4.31689
 116 1 2.035 24.4624 4.31689
 117 1 0 28.7792 5.75585
 118 1 0 28.7792 8.63377
 119 1 2.035 30.2182 7.19481
 120 1 2.035 27.3403 7.19481
 121 1 0 31.6572 8.63377
 122 1 0 31.6572 11.5117
 123 1 2.035 33.0961 10.0727
 124 1 2.035 30.2182 10.0727
 125 1 0 34.5351 11.5117
 126 1 0 34.5351 14.3896
 127 1 2.035 35.9741 12.9507
 128 1 2.035 33.0961 12.9507
 129 1 0 37.413 14.3896
 130 1 0 14.3896 0
 131 1 0 17.2675 0
 132 1 0 17.2675 2.87792
 133 1 2.035 18.7065 1.43896
 134 1 2.035 15.8286 1.43896
 135 1 0 20.1455 2.87792
 136 1 0 20.1455 5.75585
 137 1 2.035 21.5844 4.31689
 138 1 2.035 18.7065 4.31689
 139 1 0 23.0234 5.75585
 140 1 0 23.0234 8.63377
 141 1 2.035 24.4624 7.19481
 142 1 2.035 21.5844 7.19481
 143 1 0 25.9013 8.63377
 144 1 0 25.9013 11.5117
 145 1 2.035 27.3403 10.0727
 146 1 2.035 24.4624 10.0727
 147 1 0 28.7792 11.5117
 148 1 0 28.7792 14.3896
 149 1 2.035 30.2182 12.9507
 150 1 2.035 27.3403 12.9507
 151 1 0 31.6572 14.3896
 152 1 0 8.63377 0
 153 1 0 11.5117 0
 154 1 0 11.5117 2.87792
 155 1 2.035 12.9507 1.43896
 156 1 2.035 10.0727 1.43896
 157 1 0 14.3896 2.87792
 158 1 0 14.3896 5.75585
 159 1 2.035 15.8286 4.31689
 160 1 2.035 12.9507 4.31689
 161 1 0 17.2675 5.75585
 162 1 0 17.2675 8.63377
 163 1 2.035 18.7065 7.19481
 164 1 2.035 15.8286 7.19481
 165 1 0 20.1455 8.63377
 166 1 0 20.1455 11.5117
 167 1 2.035 21.5844 10.0727
 168 1 2.035 18.7065 10.0727
 169 1 0 23.0234 11.5117
 170 1 0 23.0234 14.3896
 171 1 2.035 24.4624 12.9507
 172 1 2.035 21.5844 12.9507
 173 1 0 25.9013 14.3896
 174 1 0 2.87792 0
 175 1 0 5.75585 0
 176 1 0 5.75585 2.87792
 177 1 2.035 7.19481 1.43896
 178 1 2.035 4.31689 1.43896
 179 1 0 8.63377 2.87792
 180 1 0 8.63377 5.75585
 181 1 2.035 10.0727 4.31689
 182 1 2.035 7.19481 4.31689
 183 1 0 11.5117 5.75585
 184 1 0 11.5117 8.63377
 185 1 2.035 12.9507 7.19481
 186 1 2.035 10.0727 7.19481
 187 1 0 14.3896 8.63377
 188 1 0 14.3896 11.5117
 189 1 2.035 15.8286 10.0727
 190 1 2.035 12.9507 10.0727
 191 1 0 17.2675 11.5117
 192 1 0 17.2675 14.3896
 193 1 2.035 18.7065 12.9507
 194 1 2.035 15.8286 12.9507
 195 1 0 20.1455 14.3896
 196 1 0 0 0
 197 1 0 0 2.87792
 198 1 2.035 1.43896 1.43896
 199 1 0 2.87792 2.87792
 200 1 0 2.87792 5.75585
 201 1 2.035 4.31689 4.31689
 202 1 2.035 1.43896 4.31689
 203 1 0 5.75585 5.75585
 204 1 0 5.75585 8.63377
 205 1 2.035 7.19481 7.19481
 206 1 2.035 4.31689 7.19481
 207 1 0 8.63377 8.63377
 208 1 0 8.63377 11.5117
 209 1 2.035 10.0727 10.0727
 210 1 2.035 7.19481 10.0727
 211 1 0 11.5117 11.5117
 212 1 0 11.5117 14.3896
 213 1 2.035 12.9507 12.9507
 214 1 2.035 10.0727 12.9507
 215 1 0 14.3896 14.3896
 216 1 0 0 5.75585
 217 1 0 0 8.63377
 218 1 2.035 1.43896 7.19481
 219 1 0 2.87792 8.63377
 220 1 0 2.87792 11.5117
 221 1 2.035 4.31689 10.0727
 222 1 2.035 1.43896 10.0727
 223 1 0 5.75585 11.5117
 224 1 0 5.75585 14.3896
 225 1 2.035 7.19481 12.9507
 226 1 2.035 4.31689 12.9507
 227 1 0 8.63377 14.3896
 228 1 0 0 11.5117
 229 1 0 0 14.3896
 230 1 2.035 1.43896 12.9507
 231 1 0 2.87792 14.3896
 232 1 4.07 54.6806 0
 233 1 4.07 57.5585 0
 234 1 4.07 57.5585 2.87792
 235 1 6.105 58.9975 1.43896
 236 1 6.105 56.1195 1.43896
 237 1 6.105 58.9975 4.31689
 238 1 4.07 48.9247 0
 239 1 4.07 51.8026 0
 240 1 4.07 51.8026 2.87792
 241 1 6.105 53.2416 1.43896
 242 1 6.105 50.3637 1.43896
 243 1 4.07 54.6806 2.87792
 244 1 4.07 54.6806 5.75585
 245 1 6.105 56.1195 4.31689
 246 1 6.105 53.2416 4.31689
 247 1 4.07 57.5585 5.75585
 248 1 4.07 57.5585 8.63377
 249 1 6.105 58.9975 7.19481
 250 1 6.105 56.1195 7.19481
 251 1 6.105 58.9975 10.0727
 252 1 4.07 43.1689 0
 253 1 4.07 46.0468 0
 254 1 4.07 46.0468 2.87792
 255 1 6.105 47.4858 1.43896
 256 1 6.105 44.6078 1.43896
 257 1 4.07 48.9247 2.87792
 258 1 4.07 48.9247 5.75585
 259 1 6.105 50.3637 4.31689
 260 1 6.105 47.4858 4.31689
 261 1 4.07 51.8026 5.75585
 262 1 4.07 51.8026 8.63377
 263 1 6.105 53.2416 7.19481
 264 1 6.105 50.3637 7.19481
 265 1 4.07 54.6806 8.63377
 266 1 4.07 54.6806 11.5117
 267 1 6.105 56.1195 10.0727
 268 1 6.105 53.2416 10.0727
 269 1 4.07 57.5585 11.5117
 270 1 4.07 57.5585 14.3896
 271 1 6.105 58.9975 12.9507
 272 1 6.105 56.1195 12.9507
 273 1 4.07 37.413 0
 274 1 4.07 40.2909 0
 275 1 4.07 40.2909 2.87792
 276 1 6.105 41.7299 1.43896
 277 1 6.105 38.852 1.43896
 278 1 4.07 43.1689 2.87792
 279 1 4.07 43.1689 5.75585
 280 1 6.105 44.6078 4.31689
 281 1 6.105 41.7299 4.31689
 282 1 4.07 46.0468 5.75585
 283 1 4.07 46.0468 8.63377
 284 1 6.105 47.4858 7.19481
 285 1 6.105 44.6078 7.19481
 286 1 4.07 48.9247 8.63377
 287 1 4.07 48.9247 11.5117
 288 1 6.105 50.3637 10.0727
 289 1 6.105 47.4858 10.0727
 290 1 4.07 51.8026 11.5117
 291 1 4.07 51.8026 14.3896
 292 1 6.105 53.2416 12.9507
 293 1 6.105 50.3637 12.9507
 294 1 4.07 54.6806 14.3896
 295 1 4.07 31.6572 0
 296 1 4.07 34.5351 0
 297 1 4.07 34.5351 2.87792
 298 1 6.105 35.9741 1.43896
 299 1 6.105 33.0961 1.43896
 300 1 4.07 37.413 2.87792
 301 1 4.07 37.413 5.75585
 302 1 6.105 38.852 4.31689
 303 1 6.105 35.9741 4.31689
 304 1 4.07 40.2909 5.75585
 305 1 4.07 40.2909 8.63377
 306 1 6.105 41.7299 7.19481
 307 1 6.105 38.852 7.19481
 308 1 4.07 43.1689 8.63377
 309 1 4.07 43.1689 11.5117
 310 1 6.105 44.6078 10.0727
 311 1 6.105 41.7299 10.0727
 312 1 4.07 46.0468 11.5117
 313 1 4.07 46.0468 14.3896
 314 1 6.105 47.4858 12.9507
 315 1 6.105 44.6078 12.9507
 316 1 4.07 48.9247 14.3896
 317 1 4.07 25.9013 0
 318 1 4.07 28.7792 0
 319 1 4.07 28.7792 2.87792
 320 1 6.105 30.2182 1.43896
 321 1 6.105 27.3403 1.43896
 322 1 4.07 31.6572 2.87792
 323 1 4.07 31.6572 5.75585
 324 1 6.105 33.0961 4.31689
 325 1 6.105 30.2182 4.31689
 326 1 4.07 34.5351 5.75585
 327 1 4.07 34.5351 8.63377
 328 1 6.105 35.9741 7.19481
 329 1 6.105 33.0961 7.19481
 330 1 4.07 37.413 8.63377
 331 1 4.07 37.413 11.5117
 332 1 6.105 38.852 10.0727
 333 1 6.105 35.9741 10.0727
 334 1 4.07 40.2909 11.5117
 335 1 4.07 40.2909 14.3896
 336 1 6.105 41.7299 12.9507
 337 1 6.105 38.852 12.9507
 338 1 4.07 43.1689 14.3896
 339 1 4.07 20.1455 0
 340 1 4.07 23.0234 0
 341 1 4.07 23.0234 2.87792
 342 1 6.105 24.4624 1.43896
 343 1 6.105 21.5844 1.43896
 344 1 4.07 25.9013 2.87792
 345 1 4.07 25.9013 5.75585
 346 1 6.105 27.3403 4.31689
 347 1 6.105 24.4624 4.31689
 348 1 4.07 28.7792 5.75585
 349 1 4.07 28.7792 8.63377
 350 1 6.105 30.2182 7.19481
 351 1 6.105 27.3403 7.19481
 352 1 4.07 31.6572 8.63377
 353 1 4.07 31.6572 11.5117
 354 1 6.105 33.0961 10.0727
 355 1 6.105 30.2182 10.0727
 356 1 4.07 34.5351 11.5117
 357 1 4.07 34.5351 14.3896
 358 1 6.105 35.9741 12.9507
 359 1 6.105 33.0961 12.9507
 360 1 4.07 37.413 14.3896
 361 1 4.07 14.3896 0
 362 1 4.07 17.2675 0
 363 1 4.07 17.2675 2.87792
 364 1 6.105 18.7065 1.43896
 365 1 6.105 15.8286 1.43896
 366 1 4.07 20.1455 2.87792
 367 1 4.07 20.1455 5.75585
 368 1 6.105 21.5844 4.31689
 369 1 6.105 18.7065 4.31689
 370 1 4.07 23.0234 5.75585
 371 1 4.07 23.0234 8.63377
 372 1 6.105 24.4624 7.19481
 373 1 6.105 21.5844 7.19481
 374 1 4.07 25.9013 8.63377
 375 1 4.07 25.9013 11.5117
 376 1 6.105 27.3403 10.0727
 377 1 6.105 24.4624 10.0727
 378 1 4.07 28.7792 11.5117
 379 1 4.07 28.7792 14.3896
 380 1 6.105 30.2182 12.9507
 381 1 6.105 27.3403 12.9507
 382 1 4.07 31.6572 14.3896
 383 1 4.07 8.63377 0
 384 1 4.07 11.5117 0
 385 1 4.07 11.5117 2.87792
 386 1 6.105 12.9507 1.43896
 387 1 6.105 10.0727 1.43896
 388 1 4.07 14.3896 2.87792
 389 1 4.07 14.3896 5.75585
 390 1 6.105 15.8286 4.31689
 391 1 6.105 12.9507 4.31689
 392 1 4.07 17.2675 5.75585
 393 1 4.07 17.2675 8.63377
 394 1 6.105 18.7065 7.19481
 395 1 6.105 15.8286 7.19481
 396 1 4.07 20.1455 8.63377
 397 1 4.07 20.1455 11.5117
 398 1 6.105 21.5844 10.0727
 399 1 6.105 18.7065 10.0727
 400 1 4.07 23.0234 11.5117
 401 1 4.07 23.0234 14.3896
 402 1 6.105 24.4624 12.9507
 403 1 6.105 21.5844 12.9507
 404 1 4.07 25.9013 14.3896
 405 1 4.07 2.87792 0
 406 1 4.07 5.75585 0
 407 1 4.07 5.75585 2.87792
 408 1 6.105 7.19481 1.43896
 409 1 6.105 4.31689 1.43896
 410 1 4.07 8.63377 2.87792
 411 1 4.07 8.63377 5.75585
 412 1 6.105 10.0727 4.31689
 413 1 6.105 7.19481 4.31689
 414 1 4.07 11.5117 5.75585
 415 1 4.07 11.5117 8.63377
 416 1 6.105 12.9507 7.19481
 417 1 6.105 10.0727 7.19481
 418 1 4.07 14.3896 8.63377
 419 1 4.07 14.3896 11.5117
 420 1 6.105 15.8286 10.0727
 421 1 6.105 12.9507 10.0727
 422 1 4.07 17.2675 11.5117
 423 1 4.07 17.2675 14.3896
 424 1 6.105 18.7065 12.9507
 425 1 6.105 15.8286 12.9507
 426 1 4.07 20.1455 14.3896
 427 1 4.07 0 0
 428 1 4.07 0 2.87792
 429 1 6.105 1.43896 1.43896
 430 1 4.07 2.87792 2.87792
 431 1 4.07 2.87792 5.75585
 432 1 6.105 4.31689 4.31689
 433 1 6.105 1.43896 4.31689
 434 1 4.07 5.75585 5.75585
 435 1 4.07 5.75585 8.63377
 436 1 6.105 7.19481 7.19481
 437 1 6.105 4.31689 7.19481
 438 1 4.07 8.63377 8.63377
 439 1 4.07 8.63377 11.5117
 440 1 6.105 10.0727 10.0727
 441 1 6.105 7.19481 10.0727
 442 1 4.07 11.5117 11.5117
 443 1 4.07 11.5117 14.3896
 444 1 6.105 12.9507 12.9507
 445 1 6.105 10.0727 12.9507
 446 1 4.07 14.3896 14.3896
 447 1 4.07 0 5.75585
 448 1 4.07 0 8.63377
 449 1 6.105 1.43896 7.19481
 450 1 4.07 2.87792 8.63377
 451 1 4.07 2.87792 11.5117
 452 1 6.105 4.31689 10.0727
 453 1 6.105 1.43896 10.0727
 454 1 4.07 5.75585 11.5117
 455 1 4.07 5.75585 14.3896
 456 1 6.105 7.19481 12.9507
 457 1 6.105 4.31689 12.9507
 458 1 4.07 8.63377 14.3896
 459 1 4.07 0 11.5117
 460 1 4.07 0 14.3896
 461 1 6.105 1.43896 12.9507
 462 1 4.07 2.87792 14.3896
 463 1 8.14 54.6806 0
 464 1 8.14 57.5585 0
 465 1 8.14 57.5585 2.87792
 466 1 10.175 58.9975 1.43896
 467 1 10.175 56.1195 1.43896
 468 1 10.175 58.9975 4.31689
 469 1 8.14 48.9247 0
 470 1 8.14 51.8026 0
 471 1 8.14 51.8026 2.87792
 472 1 10.175 53.2416 1.43896
 473 1 10.175 50.3637 1.43896
 474 1 8.14 54.6806 2.87792
 475 1 8.14 54.6806 5.75585
 476 1 10.175 56.1195 4.31689
 477 1 10.175 53.2416 4.31689
 478 1 8.14 57.5585 5.75585
 479 1 8.14 57.5585 8.63377
 480 1 10.175 58.9975 7.19481
 481 1 10.175 56.1195 7.19481
 482 1 10.175 58.9975 10.0727
 483 1 8.14 43.1689 0
 484 1 8.14 46.0468 0
 485 1 8.14 46.0468 2.87792
 486 1 10.175 47.4858 1.43896
 487 1 10.175 44.6078 1.43896
 488 1 8.14 48.9247 2.87792
 489 1 8.14 48.9247 5.75585
 490 1 10.175 50.3637 4.31689
 491 1 10.175 47.4858 4.31689
 492 1 8.14 51.8026 5.75585
 493 1 8.14 51.8026 8.63377
 494 1 10.175 53.2416 7.19481
 495 1 10.175 50.3637 7.19481
 496 1 8.14 54.6806 8.63377
 497 1 8.14 54.6806 11.5117
 498 1 10.175 56.1195 10.0727
 499 1 10.175 53.2416 10.0727
 500 1 8.14 57.5585 11.5117
 501 1 8.14 57.5585 14.3896
 502 1 10.175 58.9975 12.9507
 503 1 10.175 56.1195 12.9507
 504 1 8.14 37.413 0
 505 1 8.14 40.2909 0
 506 1 8.14 40.2909 2.87792
 507 1 10.175 41.7299 1.43896
 508 1 10.175 38.852 1.43896
 509 1 8.14 43.1689 2.87792
 510 1 8.14 43.1689 5.75585
 511 1 10.175 44.6078 4.31689
 512 1 10.175 41.7299 4.31689
 513 1 8.14 46.0468 5.75585
 514 1 8.14 46.0468 8.63377
 515 1 10.175 47.4858 7.19481
 516 1 10.175 44.6078 7.19481
 517 1 8.14 48.9247 8.63377
 518 1 8.14 48.9247 11.5117
 519 1 10.175 50.3637 10.0727
 520 1 10.175 47.4858 10.0727
 521 1 8.14 51.8026 11.5117
 522 1 8.14 51.8026 14.3896
 523 1 10.175 53.2416 12.9507
 524 1 10.175 50.3637 12.9507
 525 1 8.14 54.6806 14.3896
 526 1 8.14 31.6572 0
 527 1 8.14 34.5351 0
 528 1 8.14 34.5351 2.87792
 529 1 10.175 35.9741 1.43896
 530 1 10.175 33.0961 1.43896
 531 1 8.14 37.413 2.87792
 532 1 8.14 37.413 5.75585
 533 1 10.175 38.852 4.31689
 534 1 10.175 35.9741 4.31689
 535 1 8.14 40.2909 5.75585
 536 1 8.14 40.2909 8.63377
 537 1 10.175 41.7299 7.19481
 538 1 10.175 38.852 7.19481
 539 1 8.14 43.1689 8.63377
 540 1 8.14 43.1689 11.5117
 541 1 10.175 44.6078 10.0727
 542 1 10.175 41.7299 10.0727
 543 1 8.14 46.0468 11.5117
 544 1 8.14 46.0468 14.3896
 545 1 10.175 47.4858 12.9507
 546 1 10.175 44.6078 12.9507
 547 1 8.14 48.9247 14.3896
 548 1 8.14 25.9013 0
 549 1 8.14 28.7792 0
 550 1 8.14 28.7792 2.87792
 551 1 10.175 30.2182 1.43896
 552 1 10.175 27.3403 1.43896
 553 1 8.14 31.6572 2.87792
 554 1 8.14 31.6572 5.75585
 555 1 10.175 33.0961 4.31689
 556 1 10.175 30.2182 4.31689
 557 1 8.14 34.5351 5.75585
 558 1 8.14 34.5351 8.63377
 559 1 10.175 35.9741 7.19481
 560 1 10.175 33.0961 7.19481
 561 1 8.14 37.413 8.63377
 562 1 8.14 37.413 11.5117
 563 1 10.175 38.852 10.0727
 564 1 10.175 35.9741 10.0727
 565 1 8.14 40.2909 11.5117
 566 1 8.14 40.2909 14.3896
 567 1 10.175 41.7299 12.9507
 568 1 10.175 38.852 12.9507
 569 1 8.14 43.1689 14.3896
 570 1 8.14 20.1455 0
 571 1 8.14 23.0234 0
 572 1 8.14 23.0234 2.87792
 573 1 10.175 24.4624 1.43896
 574 1 10.175 21.5844 1.43896
 575 1 8.14 25.9013 2.87792
 576 1 8.14 25.9013 5.75585
 577 1 10.175 27.3403 4.31689
 578 1 10.175 24.4624 4.31689
 579 1 8.14 28.7792 5.75585
 580 1 8.14 28.7792 8.63377
 581 1 10.175 30.2182 7.19481
 582 1 10.175 27.3403 7.19481
 583 1 8.14 31.6572 8.63377
 584 1 8.14 31.6572 11.5117
 585 1 10.175 33.0961 10.0727
 586 1 10.175 30.2182 10.0727
 587 1 8.14 34.5351 11.5117
 588 1 8.14 34.5351 14.3896
 589 1 10.175 35.9741 12.9507
 590 1 10.175 33.0961 12.9507
 591 1 8.14 37.413 14.3896
 592 1 8.14 14.3896 0
 593 1 8.14 17.2675 0
 594 1 8.14 17.2675 2.87792
 595 1 10.175 18.7065 1.43896
 596 1 10.175 15.8286 1.43896
 597 1 8.14 20.1455 2.87792
 598 1 8.14 20.1455 5.75585
 599 1 10.175 21.5844 4.31689
 600 1 10.175 18.7065 4.31689
 601 1 8.14 23.0234 5.75585
 602 1 8.14 23.0234 8.63377
 603 1 10.175 24.4624 7.19481
 604 1 10.175 21.5844 7.19481
 605 1 8.14 25.9013 8.63377
 606 1 8.14 25.9013 11.5117
 607 1 10.175 27.3403 10.0727
 608 1 10.175 24.4624 10.0727
 609 1 8.14 28.7792 11.5117
 610 1 8.14 28.7792 14.3896
 611 1 10.175 30.2182 12.9507
 612 1 10.175 27.3403 12.9507
 613 1 8.14 31.6572 14.3896
 614 1 8.14 8.63377 0
 615 1 8.14 11.5117 0
 616 1 8.14 11.5117 2.87792
 617 1 10.175 12.9507 1.43896
 618 1 10.175 10.0727 1.43896
 619 1 8.14 14.3896 2.87792
 620 1 8.14 14.3896 5.75585
 621 1 10.175 15.8286 4.31689
 622 1 10.175 12.9507 4.31689
 623 1 8.14 17.2675 5.75585
 624 1 8.14 17.2675 8.63377
 625 1 10.175 18.7065 7.19481
 626 1 10.175 15.8286 7.19481
 627 1 8.14 20.1455 8.63377
 628 1 8.14 20.1455 11.5117
 629 1 10.175 21.5844 10.0727
 630 1 10.175 18.7065 10.0727
 631 1 8.14 23.0234 11.5117
 632 1 8.14 23.0234 14.3896
 633 1 10.175 24.4624 12.9507
 634 1 10.175 21.5844 12.9507
 635 1 8.14 25.9013 14.3896
 636 1 8.14 2.87792 0
 637 1 8.14 5.75585 0
 638 1 8.14 5.75585 2.87792
 639 1 10.175 7.19481 1.43896
 640 1 10.175 4.31689 1.43896
 641 1 8.14 8.63377 2.87792
 642 1 8.14 8.63377 5.75585
 643 1 10.175 10.0727 4.31689
 644 1 10.175 7.19481 4.31689
 645 1 8.14 11.5117 5.75585
 646 1 8.14 11.5117 8.63377
 647 1 10.175 12.9507 7.19481
 648 1 10.175 10.0727 7.19481
 649 1 8.14 14.3896 8.63377
 650 1 8.14 14.3896 11.5117
 651 1 10.175 15.8286 10.0727
 652 1 10.175 12.9507 10.0727
 653 1 8.14 17.2675 11.5117
 654 1 8.14 17.2675 14.3896
 655 1 10.175 18.7065 12.9507
 656 1 10.175 15.8286 12.9507
 657 1 8.14 20.1455 14.3896
 658 1 8.14 0 0
 659 1 8.14 0 2.87792
 660 1 10.175 1.43896 1.43896
 661 1 8.14 2.87792 2.87792
 662 1 8.14 2.87792 5.75585
 663 1 10.175 4.31689 4.31689
 664 1 10.175 1.43896 4.31689
 665 1 8.14 5.75585 5.75585
 666 1 8.14 5.75585 8.63377
 667 1 10.175 7.19481 7.19481
 668 1 10.175 4.31689 7.19481
 669 1 8.14 8.63377 8.63377
 670 1 8.14 8.63377 11.5117
 671 1 10.175 10.0727 10.0727
 672 1 10.175 7.19481 10.0727
 673 1 8.14 11.5117 11.5117
 674 1 8.14 11.5117 14.3896
 675 1 10.175 12.9507 12.9507
 676 1 10.175 10.0727 12.9507
 677 1 8.14 14.3896 14.3896
 678 1 8.14 0 5.75585
 679 1 8.14 0 8.63377
 680 1 10.175 1.43896 7.19481
 681 1 8.14 2.87792 8.63377
 682 1 8.14 2.87792 11.5117
 683 1 10.175 4.31689 10.0727
 684 1 10.175 1.43896 10.0727
 685 1 8.14 5.75585 11.5117
 686 1 8.14 5.75585 14.3896
 687 1 10.175 7.19481 12.9507
 688 1 10.175 4.31689 12.9507
 689 1 8.14 8.63377 14.3896
 690 1 8.14 0 11.5117
 691 1 8.14 0 14.3896
 692 1 10.175 1.43896 12.9507
 693 1 8.14 2.87792 14.3896
 694 1 12.21 54.6806 0
 695 1 12.21 57.5585 0
 696 1 12.21 57.5585 2.87792
 697 1 14.245 58.9975 1.43896
 698 1 14.245 56.1195 1.43896
 699 1 14.245 58.9975 4.31689
 700 1 12.21 48.9247 0
 701 1 12.21 51.8026 0
 702 1 12.21 51.8026 2.87792
 703 1 14.245 53.2416 1.43896
 704 1 14.245 50.3637 1.43896
 705 1 12.21 54.6806 2.87792
 706 1 12.21 54.6806 5.75585
 707 1 14.245 56.1195 4.31689
 708 1 14.245 53.2416 4.31689
 709 1 12.21 57.5585 5.75585
 710 1 12.21 57.5585 8.63377
 711 1 14.245 58.9975 7.19481
 712 1 14.245 56.1195 7.19481
 713 1 14.245 58.9975 10.0727
 714 1 12.21 43.1689 0
 715 1 12.21 46.0468 0
 716 1 12.21 46.0468 2.87792
 717 1 14.245 47.4858 1.43896
 718 1 14.245 44.6078 1.43896
 719 1 12.21 48.9247 2.87792
 720 1 12.21 48.9247 5.75585
 721 1 14.245 50.3637 4.31689
 722 1 14.245 47.4858 4.31689
 723 1 12.21 51.8026 5.75585
 724 1 12.21 51.8026 8.63377
 725 1 14.245 53.2416 7.19481
 726 1 14.245 50.3637 7.19481
 727 1 12.21 54.6806 8.63377
 728 1 12.21 54.6806 11.5117
 729 1 14.245 56.1195 10.0727
 730 1 14.245 53.2416 10.0727
 731 1 12.21 57.5585 11.5117
 732 1 12.21 57.5585 14.3896
 733 1 14.245 58.9975 12.9507
 734 1 14.245 56.1195 12.9507
 735 1 12.21 37.413 0
 736 1 12.21 40.2909 0
 737 1 12.21 40.2909 2.87792
 738 1 14.245 41.7299 1.43896
 739 1 14.245 38.852 1.43896
 740 1 12.21 43.1689 2.87792
 741 1 12.21 43.1689 5.75585
 742 1 14.245 44.6078 4.31689
 743 1 14.245 41.7299 4.31689
 744 1 12.21 46.0468 5.75585
 745 1 12.21 46.0468 8.63377
 746 1 14.245 47.4858 7.19481
 747 1 14.245 44.6078 7.19481
 748 1 12.21 48.9247 8.63377
 749 1 12.21 48.9247 11.5117
 750 1 14.245 50.3637 10.0727
 751 1 14.245 47.4858 10.0727
 752 1 12.21 51.8026 11.5117
 753 1 12.21 51.8026 14.3896
 754 1 14.245 53.2416 12.9507
 755 1 14.245 50.3637 12.9507
 756 1 12.21 54.6806 14.3896
 757 1 12.21 31.6572 0
 758 1 12.21 34.5351 0
 759 1 12.21 34.5351 2.87792
 760 1 14.245 35.9741 1.43896
 761 1 14.245 33.0961 1.43896
 762 1 12.21 37.413 2.87792
 763 1 12.21 37.413 5.75585
 764 1 14.245 38.852 4.31689
 765 1 14.245 35.9741 4.31689
 766 1 12.21 40.2909 5.75585
 767 1 12.21 40.2909 8.63377
 768 1 14.245 41.7299 7.19481
 769 1 14.245 38.852 7.19481
 770 1 12.21 43.1689 8.63377
 771 1 12.21 43.1689 11.5117
 772 1 14.245 44.6078 10.0727
 773 1 14.245 41.7299 10.0727
 774 1 12.21 46.0468 11.5117
 775 1 12.21 46.0468 14.3896
 776 1 14.245 47.4858 12.9507
 777 1 14.245 44.6078 12.9507
 778 1 12.21 48.9247 14.3896
 779 1 12.21 25.9013 0
 780 1 12.21 28.7792 0
 781 1 12.21 28.7792 2.87792
 782 1 14.245 30.2182 1.43896
 783 1 14.245 27.3403 1.43896
 784 1 12.21 31.6572 2.87792
 785 1 12.21 31.6572 5.75585
 786 1 14.245 33.0961 4.31689
 787 1 14.245 30.2182 4.31689
 788 1 12.21 34.5351 5.75585
 789 1 12.21 34.5351 8.63377
 790 1 14.245 35.9741 7.19481
 791 1 14.245 33.0961 7.19481
 792 1 12.21 37.413 8.63377
 793 1 12.21 37.413 11.5117
 794 1 14.245 38.852 10.0727
 795 1 14.245 35.9741 10.0727
 796 1 12.21 40.2909 11.5117
 797 1 12.21 40.2909 14.3896
 798 1 14.245 41.7299 12.9507
 799 1 14.245 38.852 12.9507
 800 1 12.21 43.1689 14.3896
 801 1 12.21 20.1455 0
 802 1 12.21 23.0234 0
 803 1 12.21 23.0234 2.87792
 804 1 14.245 24.4624 1.43896
 805 1 14.245 21.5844 1.43896
 806 1 12.21 25.9013 2.87792
 807 1 12.21 25.9013 5.75585
 808 1 14.245 27.3403 4.31689
 809 1 14.245 24.4624 4.31689
 810 1 12.21 28.7792 5.75585
 811 1 12.21 28.7792 8.63377
 812 1 14.245 30.2182 7.19481
 813 1 14.245 27.3403 7.19481
 814 1 12.21 31.6572 8.63377
 815 1 12.21 31.6572 11.5117
 816 1 14.245 33.0961 10.0727
 817 1 14.245 30.2182 10.0727
 818 1 12.21 34.5351 11.5117
 819 1 12.21 34.5351 14.3896
 820 1 14.245 35.9741 12.9507
 821 1 14.245 33.0961 12.9507
 822 1 12.21 37.413 14.3896
 823 1 12.21 14.3896 0
 824 1 12.21 17.2675 0
 825 1 12.21 17.2675 2.87792
 826 1 14.245 18.7065 1.43896
 827 1 14.245 15.8286 1.43896
 828 1 12.21 20.1455 2.87792
 829 1 12.21 20.1455 5.75585
 830 1 14.245 21.5844 4.31689
 831 1 14.245 18.7065 4.31689
 832 1 12.21 23.0234 5.75585
 833 1 12.21 23.0234 8.63377
 834 1 14.245 24.4624 7.19481
 835 1 14.245 21.5844 7.19481
 836 1 12.21 25.9013 8.63377
 837 1 12.21 25.9013 11.5117
 838 1 14.245 27.3403 10.0727
 839 1 14.245 24.4624 10.0727
 840 1 12.21 28.7792 11.5117
 841 1 12.21 28.7792 14.3896
 842 1 14.245 30.2182 12.9507
 843 1 14.245 27.3403 12.9507
 844 1 12.21 31.6572 14.3896
 845 1 12.21 8.63377 0
 846 1 12.21 11.5117 0
 847 1 12.21 11.5117 2.87792
 848 1 14.245 12.9507 1.43896
 849 1 14.245 10.0727 1.43896
 850 1 12.21 14.3896 2.87792
 851 1 12.21 14.3896 5.75585
 852 1 14.245 15.8286 4.31689
 853 1 14.245 12.9507 4.31689
 854 1 12.21 17.2675 5.75585
 855 1 12.21 17.2675 8.63377
 856 1 14.245 18.7065 7.19481
 857 1 14.245 15.8286 7.19481
 858 1 12.21 20.1455 8.63377
 859 1 12.21 20.1455 11.5117
 860 1 14.245 21.5844 10.0727
 861 1 14.245 18.7065 10.0727
 862 1 12.21 23.0234 11.5117
 863 1 12.21 23.0234 14.3896
 864 1 14.245 24.4624 12.9507
 865 1 14.245 21.5844 12.9507
 866 1 12.21 25.9013 14.3896
 867 1 12.21 2.87792 0
 868 1 12.21 5.75585 0
 869 1 12.21 5.75585 2.87792
 870 1 14.245 7.19481 1.43896
 871 1 14.245 4.31689 1.43896
 872 1 12.21 8.63377 2.87792
 873 1 12.21 8.63377 5.75585
 874 1 14.245 10.0727 4.31689
 875 1 14.245 7.19481 4.31689
 876 1 12.21 11.5117 5.75585
 877 1 12.21 11.5117 8.63377
 878 1 14.245 12.9507 7.19481
 879 1 14.245 10.0727 7.19481
 880 1 12.21 14.3896 8.63377
 881 1 12.21 14.3896 11.5117
 882 1 14.245 15.8286 10.0727
 883 1 14.245 12.9507 10.0727
 884 1 12.21 17.2675 11.5117
 885 1 12.21 17.2675 14.3896
 886 1 14.245 18.7065 12.9507
 887 1 14.245 15.8286 12.9507
 888 1 12.21 20.1455 14.3896
 889 1 12.21 0 0
 890 1 12.21 0 2.87792
 891 1 14.245 1.43896 1.43896
 892 1 12.21 2.87792 2.87792
 893 1 12.21 2.87792 5.75585
 894 1 14.245 4.31689 4.31689
 895 1 14.245 1.43896 4.31689
 896 1 12.21 5.75585 5.75585
 897 1 12.21 5.75585 8.63377
 898 1 14.245 7.19481 7.19481
 899 1 14.245 4.31689 7.19481
 900 1 12.21 8.63377 8.63377
 901 1 12.21 8.63377 11.5117
 902 1 14.245 10.0727 10.0727
 903 1 14.245 7.19481 10.0727
 904 1 12.21 11.5117 11.5117
 905 1 12.21 11.5117 14.3896
 906 1 14.245 12.9507 12.9507
 907 1 14.245 10.0727 12.9507
 908 1 12.21 14.3896 14.3896
 909 1 12.21 0 5.75585
 910 1 12.21 0 8.63377
 911 1 14.245 1.43896 7.19481
 912 1 12.21 2.87792 8.63377
 913 1 12.21 2.87792 11.5117
 914 1 14.245 4.31689 10.0727
 915 1 14.245 1.43896 10.0727
 916 1 12.21 5.75585 11.5117
 917 1 12.21 5.75585 14.3896
 918 1 14.245 7.19481 12.9507
 919 1 14.245 4.31689 12.9507
 920 1 12.21 8.63377 14.3896
 921 1 12.21 0 11.5117
 922 1 12.21 0 14.3896
 923 1 14.245 1.43896 12.9507
 924 1 12.21 2.87792 14.3896
 925 1 16.28 54.6806 0
 926 1 16.28 57.5585 0
 927 1 16.28 57.5585 2.87792
 928 1 18.315 58.9975 1.43896
 929 1 18.315 56.1195 1.43896
 930 1 18.315 58.9975 4.31689
 931 1 16.28 48.9247 0
 932 1 16.28 51.8026 0
 933 1 16.28 51.8026 2.87792
 934 1 18.315 53.2416 1.43896
 935 1 18.315 50.3637 1.43896
 936 1 16.28 54.6806 2.87792
 937 1 16.28 54.6806 5.75585
 938 1 18.315 56.1195 4.31689
 939 1 18.315 53.2416 4.31689
 940 1 16.28 57.5585 5.75585
 941 1 16.28 57.5585 8.63377
 942 1 18.315 58.9975 7.19481
 943 1 18.315 56.1195 7.19481
 944 1 18.315 58.9975 10.0727
 945 1 16.28 43.1689 0
 946 1 16.28 46.0468 0
 947 1 16.28 46.0468 2.87792
 948 1 18.315 47.4858 1.43896
 949 1 18.315 44.6078 1.43896
 950 1 16.28 48.9247 2.87792
 951 1 16.28 48.9247 5.75585
 952 1 18.315 50.3637 4.31689
 953 1 18.315 47.4858 4.31689
 954 1 16.28 51.8026 5.75585
 955 1 16.28 51.8026 8.63377
 956 1 18.315 53.2416 7.19481
 957 1 18.315 50.3637 7.19481
 958 1 16.28 54.6806 8.63377
 959 1 16.28 54.6806 11.5117
 960 1 18.315 56.1195 10.0727
 961 1 18.315 53.2416 10.0727
 962 1 16.28 57.5585 11.5117
 963 1 16.28 57.5585 14.3896
 964 1 18.315 58.9975 12.9507
 965 1 18.315 56.1195 12.9507
 966 1 16.28 37.413 0
 967 1 16.28 40.2909 0
 968 1 16.28 40.2909 2.87792
 969 1 18.315 41.7299 1.43896
 970 1 18.315 38.852 1.43896
 971 1 16.28 43.1689 2.87792
 972 1 16.28 43.1689 5.75585
 973 1 18.315 44.6078 4.31689
 974 1 18.315 41.7299 4.31689
 975 1 16.28 46.0468 5.75585
 976 1 16.28 46.0468 8.63377
 977 1 18.315 47.4858 7.19481
 978 1 18.315 44.6078 7.19481
 979 1 16.28 48.9247 8.63377
 980 1 16.28 48.9247 11.5117
 981 1 18.315 50.3637 10.0727
 982 1 18.315 47.4858 10.0727
 983 1 16.28 51.8026 11.5117
 984 1 16.28 51.8026 14.3896
 985 1 18.315 53.2416 12.9507
 986 1 18.315 50.3637 12.9507
 987 1 16.28 54.6806 14.3896
 988 1 16.28 31.6572 0
 989 1 16.28 34.5351 0
 990 1 16.28 34.5351 2.87792
 991 1 18.315 35.9741 1.43896
 992 1 18.315 33.0961 1.43896
 993 1 16.28 37.413 2.87792
 994 1 16.28 37.413 5.75585
 995 1 18.315 38.852 4.31689
 996 1 18.315 35.9741 4.31689
 997 1 16.28 40.2909 5.75585
 998 1 16.28 40.2909 8.63377
 999 1 18.315 41.7299 7.19481
 1000 1 18.315 38.852 7.19481
 1001 1 16.28 43.1689 8.63377
 1002 1 16.28 43.1689 11.5117
 1003 1 18.315 44.6078 10.0727
 1004 1 18.315 41.7299 10.0727
 1005 1 16.28 46.0468 11.5117
 1006 1 16.28 46.0468 14.3896
 1007 1 18.315 47.4858 12.9507
 1008 1 18.315 44.6078 12.9507
 1009 1 16.28 48.9247 14.3896
 1010 1 16.28 25.9013 0
 1011 1 16.28 28.7792 0
 1012 1 16.28 28.7792 2.87792
 1013 1 18.315 30.2182 1.43896
 1014 1 18.315 27.3403 1.43896
 1015 1 16.28 31.6572 2.87792
 1016 1 16.28 31.6572 5.75585
 1017 1 18.315 33.0961 4.31689
 1018 1 18.315 30.2182 4.31689
 1019 1 16.28 34.5351 5.75585
 1020 1 16.28 34.5351 8.63377
 1021 1 18.315 35.9741 7.19481
 1022 1 18.315 33.0961 7.19481
 1023 1 16.28 37.413 8.63377
 1024 1 16.28 37.413 11.5117
 1025 1 18.315 38.852 10.0727
 1026 1 18.315 35.9741 10.0727
 1027 1 16.28 40.2909 11.5117
 1028 1 16.28 40.2909 14.3896
 1029 1 18.315 41.7299 12.9507
 1030 1 18.315 38.852 12.9507
 1031 1 16.28 43.1689 14.3896
 1032 1 16.28 20.1455 0
 1033 1 16.28 23.0234 0
 1034 1 16.28 23.0234 2.87792
 1035 1 18.315 24.4624 1.43896
 1036 1 18.315 21.5844 1.43896
 1037 1 16.28 25.9013 2.87792
 1038 1 16.28 25.9013 5.75585
 1039 1 18.315 27.3403 4.31689
 1040 1 18.315 24.4624 4.31689
 1041 1 16.28 28.7792 5.75585
 1042 1 16.28 28.7792 8.63377
 1043 1 18.315 30.2182 7.19481
 1044 1 18.315 27.3403 7.19481
 1045 1 16.28 31.6572 8.63377
 1046 1 16.28 31.6572 11.5117
 1047 1 18.315 33.0961 10.0727
 1048 1 18.315 30.2182 10.0727
 1049 1 16.28 34.5351 11.5117
 1050 1 16.28 34.5351 14.3896
 1051 1 18.315 35.9741 12.9507
 1052 1 18.315 33.0961 12.9507
 1053 1 16.28 37.413 14.3896
 1054 1 16.28 14.3896 0
 1055 1 16.28 17.2675 0
 1056 1 16.28 17.2675 2.87792
 1057 1 18.315 18.7065 1.43896
 1058 1 18.315 15.8286 1.43896
 1059 1 16.28 20.1455 2.87792
 1060 1 16.28 20.1455 5.75585
 1061 1 18.315 21.5844 4.31689
 1062 1 18.315 18.7065 4.31689
 1063 1 16.28 23.0234 5.75585
 1064 1 16.28 23.0234 8.63377
 1065 1 18.315 24.4624 7.19481
 1066 1 18.315 21.5844 7.19481
 1067 1 16.28 25.9013 8.63377
 1068 1 16.28 25.9013 11.5117
 1069 1 18.315 27.3403 10.0727
 1070 1 18.315 24.4624 10.0727
 1071 1 16.28 28.7792 11.5117
 1072 1 16.28 28.7792 14.3896
 1073 1 18.315 30.2182 12.9507
 1074 1 18.315 27.3403 12.9507