ITEM: TIMESTEP
0
ITEM: NUMBER OF ATOMS
3528
ITEM: BOX BOUNDS pp pp pp
-36.97 95.9557
-28.0597 87.0573
-63.445 77.5439
ITEM: ATOMS id type xu yu zu
 1 1 2.49236 58.9975 8.88178e-16
 2 1 0 54.6806 0
 3 1 2.49236 56.1195 4.4409e-15
 4 1 2.49236 53.2416 0
 5 1 0 57.5585 0
 6 1 0.830785 58.9975 2.34982
 7 1 0.830785 56.1195 2.34982
 8 1 0 48.9247 0
 9 1 2.49236 50.3637 0
 10 1 2.49236 47.4858 8.88178e-16
 11 1 0 51.8026 0
 12 1 0.830785 53.2416 2.34982
 13 1 0.830785 50.3637 2.34982
 14 1 0 43.1689 0
 15 1 2.49236 44.6078 8.88178e-16
 16 1 2.49236 41.7299 8.88178e-16
 17 1 0 46.0468 0
 18 1 0.830785 47.4858 2.34982
 19 1 0.830785 44.6078 2.34982
 20 1 0 37.413 0
 21 1 2.49236 38.852 0
 22 1 2.49236 35.9741 0
 23 1 0 40.2909 0
 24 1 0.830785 41.7299 2.34982
 25 1 0.830785 38.852 2.34982
 26 1 0 31.6572 0
 27 1 2.49236 33.0961 8.88178e-16
 28 1 2.49236 30.2182 0
 29 1 0 34.5351 0
 30 1 0.830785 35.9741 2.34982
 31 1 0.830785 33.0961 2.34982
 32 1 0 25.9013 0
 33 1 2.49236 27.3403 8.88178e-16
 34 1 2.49236 24.4624 0
 35 1 0 28.7792 0
 36 1 0.830785 30.2182 2.34982
 37 1 0.830785 27.3403 2.34982
 38 1 0 20.1455 0
 39 1 2.49236 21.5844 8.88178e-16
 40 1 2.49236 18.7065 0
 41 1 0 23.0234 0
 42 1 0.830785 24.4624 2.34982
 43 1 0.830785 21.5844 2.34982
 44 1 0 14.3896 0
 45 1 2.49236 15.8286 0
 46 1 2.49236 12.9507 0
 47 1 0 17.2675 0
 48 1 0.830785 18.7065 2.34982
 49 1 0.830785 15.8286 2.34982
 50 1 0 8.63377 0
 51 1 2.49236 10.0727 0
 52 1 2.49236 7.19481 0
 53 1 0 11.5117 0
 54 1 0.830785 12.9507 2.34982
 55 1 0.830785 10.0727 2.34982
 56 1 0 2.87792 0
 57 1 2.49236 4.31689 0
 58 1 2.49236 1.43896 0
 59 1 0 5.75585 0
 60 1 0.830785 7.19481 2.34982
 61 1 0.830785 4.31689 2.34982
 62 1 0 0 0
 63 1 0.830785 1.43896 2.34982
 64 1 4.98471 57.5585 5.32907e-15
 65 1 7.47707 58.9975 2.66454e-15
 66 1 7.47707 56.1195 2.66454e-15
 67 1 5.8155 58.9975 2.34982
 68 1 4.98471 51.8026 0
 69 1 7.47707 53.2416 0
 70 1 7.47707 50.3637 0
 71 1 4.98471 54.6806 1.77636e-15
 72 1 3.32314 54.6806 2.34982
 73 1 5.8155 56.1195 2.34982
 74 1 5.8155 53.2416 2.34982
 75 1 3.32314 57.5585 2.34982
 76 1 1.66157 57.5585 4.69963
 77 1 4.15393 58.9975 4.69963
 78 1 4.15393 56.1195 4.69963
 79 1 2.49236 58.9975 7.04945
 80 1 4.98471 46.0468 1.77636e-15
 81 1 7.47707 47.4858 0
 82 1 7.47707 44.6078 2.66454e-15
 83 1 4.98471 48.9247 0
 84 1 3.32314 48.9247 2.34982
 85 1 5.8155 50.3637 2.34982
 86 1 5.8155 47.4858 2.34982
 87 1 3.32314 51.8026 2.34982
 88 1 1.66157 51.8026 4.69963
 89 1 4.15393 53.2416 4.69963
 90 1 4.15393 50.3637 4.69963
 91 1 1.66157 54.6806 4.69963
 92 1 0 54.6806 7.04945
 93 1 2.49236 56.1195 7.04945
 94 1 2.49236 53.2416 7.04945
 95 1 8.88179e-16 57.5585 7.04945
 96 1 0.830785 58.9975 9.39927
 97 1 0.830785 56.1195 9.39927
 98 1 4.98471 40.2909 0
 99 1 7.47707 41.7299 8.88178e-16
 100 1 7.47707 38.852 0
 101 1 4.98471 43.1689 1.77636e-15
 102 1 3.32314 43.1689 2.34982
 103 1 5.8155 44.6078 2.34982
 104 1 5.8155 41.7299 2.34982
 105 1 3.32314 46.0468 2.34982
 106 1 1.66157 46.0468 4.69963
 107 1 4.15393 47.4858 4.69963
 108 1 4.15393 44.6078 4.69963
 109 1 1.66157 48.9247 4.69963
 110 1 0 48.9247 7.04945
 111 1 2.49236 50.3637 7.04945
 112 1 2.49236 47.4858 7.04945
 113 1 8.88179e-16 51.8026 7.04945
 114 1 0.830785 53.2416 9.39927
 115 1 0.830785 50.3637 9.39927
 116 1 4.98471 34.5351 0
 117 1 7.47707 35.9741 0
 118 1 7.47707 33.0961 0
 119 1 4.98471 37.413 0
 120 1 3.32314 37.413 2.34982
 121 1 5.8155 38.852 2.34982
 122 1 5.8155 35.9741 2.34982
 123 1 3.32314 40.2909 2.34982
 124 1 1.66157 40.2909 4.69963
 125 1 4.15393 41.7299 4.69963
 126 1 4.15393 38.852 4.69963
 127 1 1.66157 43.1689 4.69963
 128 1 8.88179e-16 43.1689 7.04945
 129 1 2.49236 44.6078 7.04945
 130 1 2.49236 41.7299 7.04945
 131 1 0 46.0468 7.04945
 132 1 0.830785 47.4858 9.39927
 133 1 0.830785 44.6078 9.39927
 134 1 4.98471 28.7792 0
 135 1 7.47707 30.2182 8.88178e-16
 136 1 7.47707 27.3403 0
 137 1 4.98471 31.6572 0
 138 1 3.32314 31.6572 2.34982
 139 1 5.8155 33.0961 2.34982
 140 1 5.8155 30.2182 2.34982
 141 1 3.32314 34.5351 2.34982
 142 1 1.66157 34.5351 4.69963
 143 1 4.15393 35.9741 4.69963
 144 1 4.15393 33.0961 4.69963
 145 1 1.66157 37.413 4.69963
 146 1 0 37.413 7.04945
 147 1 2.49236 38.852 7.04945
 148 1 2.49236 35.9741 7.04945
 149 1 8.88179e-16 40.2909 7.04945
 150 1 0.830785 41.7299 9.39927
 151 1 0.830785 38.852 9.39927
 152 1 4.98471 23.0234 0
 153 1 7.47707 24.4624 8.88178e-16
 154 1 7.47707 21.5844 0
 155 1 4.98471 25.9013 0
 156 1 3.32314 25.9013 2.34982
 157 1 5.8155 27.3403 2.34982
 158 1 5.8155 24.4624 2.34982
 159 1 3.32314 28.7792 2.34982
 160 1 1.66157 28.7792 4.69963
 161 1 4.15393 30.2182 4.69963
 162 1 4.15393 27.3403 4.69963
 163 1 1.66157 31.6572 4.69963
 164 1 8.88179e-16 31.6572 7.04945
 165 1 2.49236 33.0961 7.04945
 166 1 2.49236 30.2182 7.04945
 167 1 0 34.5351 7.04945
 168 1 0.830785 35.9741 9.39927
 169 1 0.830785 33.0961 9.39927
 170 1 4.98471 17.2675 0
 171 1 7.47707 18.7065 0
 172 1 7.47707 15.8286 0
 173 1 4.98471 20.1455 0
 174 1 3.32314 20.1455 2.34982
 175 1 5.8155 21.5844 2.34982
 176 1 5.8155 18.7065 2.34982
 177 1 3.32314 23.0234 2.34982
 178 1 1.66157 23.0234 4.69963
 179 1 4.15393 24.4624 4.69963
 180 1 4.15393 21.5844 4.69963
 181 1 1.66157 25.9013 4.69963
 182 1 0 25.9013 7.04945
 183 1 2.49236 27.3403 7.04945
 184 1 2.49236 24.4624 7.04945
 185 1 0 28.7792 7.04945
 186 1 0.830785 30.2182 9.39927
 187 1 0.830785 27.3403 9.39927
 188 1 4.98471 11.5117 0
 189 1 7.47707 12.9507 0
 190 1 7.47707 10.0727 0
 191 1 4.98471 14.3896 0
 192 1 3.32314 14.3896 2.34982
 193 1 5.8155 15.8286 2.34982
 194 1 5.8155 12.9507 2.34982
 195 1 3.32314 17.2675 2.34982
 196 1 1.66157 17.2675 4.69963
 197 1 4.15393 18.7065 4.69963
 198 1 4.15393 15.8286 4.69963
 199 1 1.66157 20.1455 4.69963
 200 1 0 20.1455 7.04945
 201 1 2.49236 21.5844 7.04945
 202 1 2.49236 18.7065 7.04945
 203 1 8.88179e-16 23.0234 7.04945
 204 1 0.830785 24.4624 9.39927
 205 1 0.830785 21.5844 9.39927
 206 1 4.98471 5.75585 0
 207 1 7.47707 7.19481 0
 208 1 7.47707 4.31689 0
 209 1 4.98471 8.63377 0
 210 1 3.32314 8.63377 2.34982
 211 1 5.8155 10.0727 2.34982
 212 1 5.8155 7.19481 2.34982
 213 1 3.32314 11.5117 2.34982
 214 1 1.66157 11.5117 4.69963
 215 1 4.15393 12.9507 4.69963
 216 1 4.15393 10.0727 4.69963
 217 1 1.66157 14.3896 4.69963
 218 1 0 14.3896 7.04945
 219 1 2.49236 15.8286 7.04945
 220 1 2.49236 12.9507 7.04945
 221 1 0 17.2675 7.04945
 222 1 0.830785 18.7065 9.39927
 223 1 0.830785 15.8286 9.39927
 224 1 4.98471 0 0
 225 1 7.47707 1.43896 0
 226 1 4.98471 2.87792 0
 227 1 3.32314 2.87792 2.34982
 228 1 5.8155 4.31689 2.34982
 229 1 5.8155 1.43896 2.34982
 230 1 3.32314 5.75585 2.34982
 231 1 1.66157 5.75585 4.69963
 232 1 4.15393 7.19481 4.69963
 233 1 4.15393 4.31689 4.69963
 234 1 1.66157 8.63377 4.69963
 235 1 0 8.63377 7.04945
 236 1 2.49236 10.0727 7.04945
 237 1 2.49236 7.19481 7.04945
 238 1 0 11.5117 7.04945
 239 1 0.830785 12.9507 9.39927
 240 1 0.830785 10.0727 9.39927
 241 1 3.32314 0 2.34982
 242 1 1.66157 0 4.69963
 243 1 4.15393 1.43896 4.69963
 244 1 1.66157 2.87792 4.69963
 245 1 0 2.87792 7.04945
 246 1 2.49236 4.31689 7.04945
 247 1 2.49236 1.43896 7.04945
 248 1 0 5.75585 7.04945
 249 1 0.830785 7.19481 9.39927
 250 1 0.830785 4.31689 9.39927
 251 1 0 0 7.04945
 252 1 0.830785 1.43896 9.39927
 253 1 12.4618 58.9975 0
 254 1 9.96942 54.6806 0
 255 1 12.4618 56.1195 0
 256 1 12.4618 53.2416 8.88178e-16
 257 1 9.96942 57.5585 0
 258 1 8.30785 57.5585 2.34982
 259 1 10.8002 58.9975 2.34982
 260 1 10.8002 56.1195 2.34982
 261 1 9.13864 58.9975 4.69963
 262 1 9.96942 48.9247 0
 263 1 12.4618 50.3637 8.88178e-16
 264 1 12.4618 47.4858 0
 265 1 9.96942 51.8026 0
 266 1 8.30785 51.8026 2.34982
 267 1 10.8002 53.2416 2.34982
 268 1 10.8002 50.3637 2.34982
 269 1 8.30785 54.6806 2.34982
 270 1 6.64628 54.6806 4.69963
 271 1 9.13864 56.1195 4.69963
 272 1 9.13864 53.2416 4.69963
 273 1 6.64628 57.5585 4.69963
 274 1 4.98471 57.5585 7.04945
 275 1 7.47707 58.9975 7.04945
 276 1 7.47707 56.1195 7.04945
 277 1 5.8155 58.9975 9.39927
 278 1 9.96942 43.1689 1.77636e-15
 279 1 12.4618 44.6078 0
 280 1 12.4618 41.7299 8.88178e-16
 281 1 9.96942 46.0468 0
 282 1 8.30785 46.0468 2.34982
 283 1 10.8002 47.4858 2.34982
 284 1 10.8002 44.6078 2.34982
 285 1 8.30785 48.9247 2.34982
 286 1 6.64628 48.9247 4.69963
 287 1 9.13864 50.3637 4.69963
 288 1 9.13864 47.4858 4.69963
 289 1 6.64628 51.8026 4.69963
 290 1 4.98471 51.8026 7.04945
 291 1 7.47707 53.2416 7.04945
 292 1 7.47707 50.3637 7.04945
 293 1 4.98471 54.6806 7.04945
 294 1 3.32314 54.6806 9.39927
 295 1 5.8155 56.1195 9.39927
 296 1 5.8155 53.2416 9.39927
 297 1 3.32314 57.5585 9.39927
 298 1 1.66157 57.5585 11.7491
 299 1 4.15393 58.9975 11.7491
 300 1 4.15393 56.1195 11.7491
 301 1 2.49236 58.9975 14.0989
 302 1 9.96942 37.413 0
 303 1 12.4618 38.852 8.88178e-16
 304 1 12.4618 35.9741 0
 305 1 9.96942 40.2909 0
 306 1 8.30785 40.2909 2.34982
 307 1 10.8002 41.7299 2.34982
 308 1 10.8002 38.852 2.34982
 309 1 8.30785 43.1689 2.34982
 310 1 6.64628 43.1689 4.69963
 311 1 9.13864 44.6078 4.69963
 312 1 9.13864 41.7299 4.69963
 313 1 6.64628 46.0468 4.69963
 314 1 4.98471 46.0468 7.04945
 315 1 7.47707 47.4858 7.04945
 316 1 7.47707 44.6078 7.04945
 317 1 4.98471 48.9247 7.04945
 318 1 3.32314 48.9247 9.39927
 319 1 5.8155 50.3637 9.39927
 320 1 5.8155 47.4858 9.39927
 321 1 3.32314 51.8026 9.39927
 322 1 1.66157 51.8026 11.7491
 323 1 4.15393 53.2416 11.7491
 324 1 4.15393 50.3637 11.7491
 325 1 1.66157 54.6806 11.7491
 326 1 0 54.6806 14.0989
 327 1 2.49236 56.1195 14.0989
 328 1 2.49236 53.2416 14.0989
 329 1 0 57.5585 14.0989
 330 1 9.96942 31.6572 0
 331 1 12.4618 33.0961 0
 332 1 12.4618 30.2182 0
 333 1 9.96942 34.5351 0
 334 1 8.30785 34.5351 2.34982
 335 1 10.8002 35.9741 2.34982
 336 1 10.8002 33.0961 2.34982
 337 1 8.30785 37.413 2.34982
 338 1 6.64628 37.413 4.69963
 339 1 9.13864 38.852 4.69963
 340 1 9.13864 35.9741 4.69963
 341 1 6.64628 40.2909 4.69963
 342 1 4.98471 40.2909 7.04945
 343 1 7.47707 41.7299 7.04945
 344 1 7.47707 38.852 7.04945
 345 1 4.98471 43.1689 7.04945
 346 1 3.32314 43.1689 9.39927
 347 1 5.8155 44.6078 9.39927
 348 1 5.8155 41.7299 9.39927
 349 1 3.32314 46.0468 9.39927
 350 1 1.66157 46.0468 11.7491
 351 1 4.15393 47.4858 11.7491
 352 1 4.15393 44.6078 11.7491
 353 1 1.66157 48.9247 11.7491
 354 1 0 48.9247 14.0989
 355 1 2.49236 50.3637 14.0989
 356 1 2.49236 47.4858 14.0989
 357 1 0 51.8026 14.0989
 358 1 9.96942 25.9013 0
 359 1 12.4618 27.3403 8.88178e-16
 360 1 12.4618 24.4624 0
 361 1 9.96942 28.7792 0
 362 1 8.30785 28.7792 2.34982
 363 1 10.8002 30.2182 2.34982
 364 1 10.8002 27.3403 2.34982
 365 1 8.30785 31.6572 2.34982
 366 1 6.64628 31.6572 4.69963
 367 1 9.13864 33.0961 4.69963
 368 1 9.13864 30.2182 4.69963
 369 1 6.64628 34.5351 4.69963
 370 1 4.98471 34.5351 7.04945
 371 1 7.47707 35.9741 7.04945
 372 1 7.47707 33.0961 7.04945
 373 1 4.98471 37.413 7.04945
 374 1 3.32314 37.413 9.39927
 375 1 5.8155 38.852 9.39927
 376 1 5.8155 35.9741 9.39927
 377 1 3.32314 40.2909 9.39927
 378 1 1.66157 40.2909 11.7491
 379 1 4.15393 41.7299 11.7491
 380 1 4.15393 38.852 11.7491
 381 1 1.66157 43.1689 11.7491
 382 1 0 43.1689 14.0989
 383 1 2.49236 44.6078 14.0989
 384 1 2.49236 41.7299 14.0989
 385 1 1.77635e-15 46.0468 14.0989
 386 1 9.96942 20.1455 0
 387 1 12.4618 21.5844 0
 388 1 12.4618 18.7065 0
 389 1 9.96942 23.0234 0
 390 1 8.30785 23.0234 2.34982
 391 1 10.8002 24.4624 2.34982
 392 1 10.8002 21.5844 2.34982
 393 1 8.30785 25.9013 2.34982
 394 1 6.64628 25.9013 4.69963
 395 1 9.13864 27.3403 4.69963
 396 1 9.13864 24.4624 4.69963
 397 1 6.64628 28.7792 4.69963
 398 1 4.98471 28.7792 7.04945
 399 1 7.47707 30.2182 7.04945
 400 1 7.47707 27.3403 7.04945
 401 1 4.98471 31.6572 7.04945
 402 1 3.32314 31.6572 9.39927
 403 1 5.8155 33.0961 9.39927
 404 1 5.8155 30.2182 9.39927
 405 1 3.32314 34.5351 9.39927
 406 1 1.66157 34.5351 11.7491
 407 1 4.15393 35.9741 11.7491
 408 1 4.15393 33.0961 11.7491
 409 1 1.66157 37.413 11.7491
 410 1 1.77635e-15 37.413 14.0989
 411 1 2.49236 38.852 14.0989
 412 1 2.49236 35.9741 14.0989
 413 1 0 40.2909 14.0989
 414 1 9.96942 14.3896 0
 415 1 12.4618 15.8286 0
 416 1 12.4618 12.9507 0
 417 1 9.96942 17.2675 0
 418 1 8.30785 17.2675 2.34982
 419 1 10.8002 18.7065 2.34982
 420 1 10.8002 15.8286 2.34982
 421 1 8.30785 20.1455 2.34982
 422 1 6.64628 20.1455 4.69963
 423 1 9.13864 21.5844 4.69963
 424 1 9.13864 18.7065 4.69963
 425 1 6.64628 23.0234 4.69963
 426 1 4.98471 23.0234 7.04945
 427 1 7.47707 24.4624 7.04945
 428 1 7.47707 21.5844 7.04945
 429 1 4.98471 25.9013 7.04945
 430 1 3.32314 25.9013 9.39927
 431 1 5.8155 27.3403 9.39927
 432 1 5.8155 24.4624 9.39927
 433 1 3.32314 28.7792 9.39927
 434 1 1.66157 28.7792 11.7491
 435 1 4.15393 30.2182 11.7491
 436 1 4.15393 27.3403 11.7491
 437 1 1.66157 31.6572 11.7491
 438 1 0 31.6572 14.0989
 439 1 2.49236 33.0961 14.0989
 440 1 2.49236 30.2182 14.0989
 441 1 0 34.5351 14.0989
 442 1 9.96942 8.63377 0
 443 1 12.4618 10.0727 0
 444 1 12.4618 7.19481 0
 445 1 9.96942 11.5117 0
 446 1 8.30785 11.5117 2.34982
 447 1 10.8002 12.9507 2.34982
 448 1 10.8002 10.0727 2.34982
 449 1 8.30785 14.3896 2.34982
 450 1 6.64628 14.3896 4.69963
 451 1 9.13864 15.8286 4.69963
 452 1 9.13864 12.9507 4.69963
 453 1 6.64628 17.2675 4.69963
 454 1 4.98471 17.2675 7.04945
 455 1 7.47707 18.7065 7.04945
 456 1 7.47707 15.8286 7.04945
 457 1 4.98471 20.1455 7.04945
 458 1 3.32314 20.1455 9.39927
 459 1 5.8155 21.5844 9.39927
 460 1 5.8155 18.7065 9.39927
 461 1 3.32314 23.0234 9.39927
 462 1 1.66157 23.0234 11.7491
 463 1 4.15393 24.4624 11.7491
 464 1 4.15393 21.5844 11.7491
 465 1 1.66157 25.9013 11.7491
 466 1 0 25.9013 14.0989
 467 1 2.49236 27.3403 14.0989
 468 1 2.49236 24.4624 14.0989
 469 1 0 28.7792 14.0989
 470 1 9.96942 2.87792 0
 471 1 12.4618 4.31689 0
 472 1 12.4618 1.43896 0
 473 1 9.96942 5.75585 0
 474 1 8.30785 5.75585 2.34982
 475 1 10.8002 7.19481 2.34982
 476 1 10.8002 4.31689 2.34982
 477 1 8.30785 8.63377 2.34982
 478 1 6.64628 8.63377 4.69963
 479 1 9.13864 10.0727 4.69963
 480 1 9.13864 7.19481 4.69963
 481 1 6.64628 11.5117 4.69963
 482 1 4.98471 11.5117 7.04945
 483 1 7.47707 12.9507 7.04945
 484 1 7.47707 10.0727 7.04945
 485 1 4.98471 14.3896 7.04945
 486 1 3.32314 14.3896 9.39927
 487 1 5.8155 15.8286 9.39927
 488 1 5.8155 12.9507 9.39927
 489 1 3.32314 17.2675 9.39927
 490 1 1.66157 17.2675 11.7491
 491 1 4.15393 18.7065 11.7491
 492 1 4.15393 15.8286 11.7491
 493 1 1.66157 20.1455 11.7491
 494 1 0 20.1455 14.0989
 495 1 2.49236 21.5844 14.0989
 496 1 2.49236 18.7065 14.0989
 497 1 0 23.0234 14.0989
 498 1 9.96942 0 0
 499 1 8.30785 0 2.34982
 500 1 10.8002 1.43896 2.34982
 501 1 8.30785 2.87792 2.34982
 502 1 6.64628 2.87792 4.69963
 503 1 9.13864 4.31689 4.69963
 504 1 9.13864 1.43896 4.69963
 505 1 6.64628 5.75585 4.69963
 506 1 4.98471 5.75585 7.04945
 507 1 7.47707 7.19481 7.04945
 508 1 7.47707 4.31689 7.04945
 509 1 4.98471 8.63377 7.04945
 510 1 3.32314 8.63377 9.39927
 511 1 5.8155 10.0727 9.39927
 512 1 5.8155 7.19481 9.39927
 513 1 3.32314 11.5117 9.39927
 514 1 1.66157 11.5117 11.7491
 515 1 4.15393 12.9507 11.7491
 516 1 4.15393 10.0727 11.7491
 517 1 1.66157 14.3896 11.7491
 518 1 0 14.3896 14.0989
 519 1 2.49236 15.8286 14.0989
 520 1 2.49236 12.9507 14.0989
 521 1 0 17.2675 14.0989
 522 1 6.64628 0 4.69963
 523 1 4.98471 0 7.04945
 524 1 7.47707 1.43896 7.04945
 525 1 4.98471 2.87792 7.04945
 526 1 3.32314 2.87792 9.39927
 527 1 5.8155 4.31689 9.39927
 528 1 5.8155 1.43896 9.39927
 529 1 3.32314 5.75585 9.39927
 530 1 1.66157 5.75585 11.7491
 531 1 4.15393 7.19481 11.7491
 532 1 4.15393 4.31689 11.7491
 533 1 1.66157 8.63377 11.7491
 534 1 0 8.63377 14.0989
 535 1 2.49236 10.0727 14.0989
 536 1 2.49236 7.19481 14.0989
 537 1 0 11.5117 14.0989
 538 1 3.32314 0 9.39927
 539 1 1.66157 0 11.7491
 540 1 4.15393 1.43896 11.7491
 541 1 1.66157 2.87792 11.7491
 542 1 0 2.87792 14.0989
 543 1 2.49236 4.31689 14.0989
 544 1 2.49236 1.43896 14.0989
 545 1 0 5.75585 14.0989
 546 1 0 0 14.0989
 547 1 14.9541 57.5585 0
 548 1 17.4465 58.9975 0
 549 1 17.4465 56.1195 0
 550 1 15.7849 58.9975 2.34982
 551 1 14.9541 51.8026 1.77636e-15
 552 1 17.4465 53.2416 0
 553 1 17.4465 50.3637 3.55271e-15
 554 1 14.9541 54.6806 0
 555 1 13.2926 54.6806 2.34982
 556 1 15.7849 56.1195 2.34982
 557 1 15.7849 53.2416 2.34982
 558 1 13.2926 57.5585 2.34982
 559 1 11.631 57.5585 4.69963
 560 1 14.1234 58.9975 4.69963
 561 1 14.1234 56.1195 4.69963
 562 1 12.4618 58.9975 7.04945
 563 1 14.9541 46.0468 0
 564 1 17.4465 47.4858 1.77636e-15
 565 1 17.4465 44.6078 0
 566 1 14.9541 48.9247 1.77636e-15
 567 1 13.2926 48.9247 2.34982
 568 1 15.7849 50.3637 2.34982
 569 1 15.7849 47.4858 2.34982
 570 1 13.2926 51.8026 2.34982
 571 1 11.631 51.8026 4.69963
 572 1 14.1234 53.2416 4.69963
 573 1 14.1234 50.3637 4.69963
 574 1 11.631 54.6806 4.69963
 575 1 9.96942 54.6806 7.04945
 576 1 12.4618 56.1195 7.04945
 577 1 12.4618 53.2416 7.04945
 578 1 9.96942 57.5585 7.04945
 579 1 8.30785 57.5585 9.39927
 580 1 10.8002 58.9975 9.39927
 581 1 10.8002 56.1195 9.39927
 582 1 9.13864 58.9975 11.7491
 583 1 14.9541 40.2909 1.77636e-15
 584 1 17.4465 41.7299 0
 585 1 17.4465 38.852 1.77636e-15
 586 1 14.9541 43.1689 0
 587 1 13.2926 43.1689 2.34982
 588 1 15.7849 44.6078 2.34982
 589 1 15.7849 41.7299 2.34982
 590 1 13.2926 46.0468 2.34982
 591 1 11.631 46.0468 4.69963
 592 1 14.1234 47.4858 4.69963
 593 1 14.1234 44.6078 4.69963
 594 1 11.631 48.9247 4.69963
 595 1 9.96942 48.9247 7.04945
 596 1 12.4618 50.3637 7.04945
 597 1 12.4618 47.4858 7.04945
 598 1 9.96942 51.8026 7.04945
 599 1 8.30785 51.8026 9.39927
 600 1 10.8002 53.2416 9.39927
 601 1 10.8002 50.3637 9.39927
 602 1 8.30785 54.6806 9.39927
 603 1 6.64628 54.6806 11.7491
 604 1 9.13864 56.1195 11.7491
 605 1 9.13864 53.2416 11.7491
 606 1 6.64628 57.5585 11.7491
 607 1 4.98471 57.5585 14.0989
 608 1 7.47707 58.9975 14.0989
 609 1 7.47707 56.1195 14.0989
 610 1 14.9541 34.5351 0
 611 1 17.4465 35.9741 1.77636e-15
 612 1 17.4465 33.0961 0
 613 1 14.9541 37.413 0
 614 1 13.2926 37.413 2.34982
 615 1 15.7849 38.852 2.34982
 616 1 15.7849 35.9741 2.34982
 617 1 13.2926 40.2909 2.34982
 618 1 11.631 40.2909 4.69963
 619 1 14.1234 41.7299 4.69963
 620 1 14.1234 38.852 4.69963
 621 1 11.631 43.1689 4.69963
 622 1 9.96942 43.1689 7.04945
 623 1 12.4618 44.6078 7.04945
 624 1 12.4618 41.7299 7.04945
 625 1 9.96942 46.0468 7.04945
 626 1 8.30785 46.0468 9.39927
 627 1 10.8002 47.4858 9.39927
 628 1 10.8002 44.6078 9.39927
 629 1 8.30785 48.9247 9.39927
 630 1 6.64628 48.9247 11.7491
 631 1 9.13864 50.3637 11.7491
 632 1 9.13864 47.4858 11.7491
 633 1 6.64628 51.8026 11.7491
 634 1 4.98471 51.8026 14.0989
 635 1 7.47707 53.2416 14.0989
 636 1 7.47707 50.3637 14.0989
 637 1 4.98471 54.6806 14.0989
 638 1 14.9541 28.7792 0
 639 1 17.4465 30.2182 0
 640 1 17.4465 27.3403 0
 641 1 14.9541 31.6572 0
 642 1 13.2926 31.6572 2.34982
 643 1 15.7849 33.0961 2.34982
 644 1 15.7849 30.2182 2.34982
 645 1 13.2926 34.5351 2.34982
 646 1 11.631 34.5351 4.69963
 647 1 14.1234 35.9741 4.69963
 648 1 14.1234 33.0961 4.69963
 649 1 11.631 37.413 4.69963
 650 1 9.96942 37.413 7.04945
 651 1 12.4618 38.852 7.04945
 652 1 12.4618 35.9741 7.04945
 653 1 9.96942 40.2909 7.04945
 654 1 8.30785 40.2909 9.39927
 655 1 10.8002 41.7299 9.39927
 656 1 10.8002 38.852 9.39927
 657 1 8.30785 43.1689 9.39927
 658 1 6.64628 43.1689 11.7491
 659 1 9.13864 44.6078 11.7491
 660 1 9.13864 41.7299 11.7491
 661 1 6.64628 46.0468 11.7491
 662 1 4.98471 46.0468 14.0989
 663 1 7.47707 47.4858 14.0989
 664 1 7.47707 44.6078 14.0989
 665 1 4.98471 48.9247 14.0989
 666 1 14.9541 23.0234 0
 667 1 17.4465 24.4624 0
 668 1 17.4465 21.5844 0
 669 1 14.9541 25.9013 0
 670 1 13.2926 25.9013 2.34982
 671 1 15.7849 27.3403 2.34982
 672 1 15.7849 24.4624 2.34982
 673 1 13.2926 28.7792 2.34982
 674 1 11.631 28.7792 4.69963
 675 1 14.1234 30.2182 4.69963
 676 1 14.1234 27.3403 4.69963
 677 1 11.631 31.6572 4.69963
 678 1 9.96942 31.6572 7.04945
 679 1 12.4618 33.0961 7.04945
 680 1 12.4618 30.2182 7.04945
 681 1 9.96942 34.5351 7.04945
 682 1 8.30785 34.5351 9.39927
 683 1 10.8002 35.9741 9.39927
 684 1 10.8002 33.0961 9.39927
 685 1 8.30785 37.413 9.39927
 686 1 6.64628 37.413 11.7491
 687 1 9.13864 38.852 11.7491
 688 1 9.13864 35.9741 11.7491
 689 1 6.64628 40.2909 11.7491
 690 1 4.98471 40.2909 14.0989
 691 1 7.47707 41.7299 14.0989
 692 1 7.47707 38.852 14.0989
 693 1 4.98471 43.1689 14.0989
 694 1 14.9541 17.2675 0
 695 1 17.4465 18.7065 0
 696 1 17.4465 15.8286 0
 697 1 14.9541 20.1455 0
 698 1 13.2926 20.1455 2.34982
 699 1 15.7849 21.5844 2.34982
 700 1 15.7849 18.7065 2.34982
 701 1 13.2926 23.0234 2.34982
 702 1 11.631 23.0234 4.69963
 703 1 14.1234 24.4624 4.69963
 704 1 14.1234 21.5844 4.69963
 705 1 11.631 25.9013 4.69963
 706 1 9.96942 25.9013 7.04945
 707 1 12.4618 27.3403 7.04945
 708 1 12.4618 24.4624 7.04945
 709 1 9.96942 28.7792 7.04945
 710 1 8.30785 28.7792 9.39927
 711 1 10.8002 30.2182 9.39927
 712 1 10.8002 27.3403 9.39927
 713 1 8.30785 31.6572 9.39927
 714 1 6.64628 31.6572 11.7491
 715 1 9.13864 33.0961 11.7491
 716 1 9.13864 30.2182 11.7491
 717 1 6.64628 34.5351 11.7491
 718 1 4.98471 34.5351 14.0989
 719 1 7.47707 35.9741 14.0989
 720 1 7.47707 33.0961 14.0989
 721 1 4.98471 37.413 14.0989
 722 1 14.9541 11.5117 0
 723 1 17.4465 12.9507 0
 724 1 17.4465 10.0727 0
 725 1 14.9541 14.3896 0
 726 1 13.2926 14.3896 2.34982
 727 1 15.7849 15.8286 2.34982
 728 1 15.7849 12.9507 2.34982
 729 1 13.2926 17.2675 2.34982
 730 1 11.631 17.2675 4.69963
 731 1 14.1234 18.7065 4.69963
 732 1 14.1234 15.8286 4.69963
 733 1 11.631 20.1455 4.69963
 734 1 9.96942 20.1455 7.04945
 735 1 12.4618 21.5844 7.04945
 736 1 12.4618 18.7065 7.04945
 737 1 9.96942 23.0234 7.04945
 738 1 8.30785 23.0234 9.39927
 739 1 10.8002 24.4624 9.39927
 740 1 10.8002 21.5844 9.39927
 741 1 8.30785 25.9013 9.39927
 742 1 6.64628 25.9013 11.7491
 743 1 9.13864 27.3403 11.7491
 744 1 9.13864 24.4624 11.7491
 745 1 6.64628 28.7792 11.7491
 746 1 4.98471 28.7792 14.0989
 747 1 7.47707 30.2182 14.0989
 748 1 7.47707 27.3403 14.0989
 749 1 4.98471 31.6572 14.0989
 750 1 14.9541 5.75585 0
 751 1 17.4465 7.19481 0
 752 1 17.4465 4.31689 0
 753 1 14.9541 8.63377 0
 754 1 13.2926 8.63377 2.34982
 755 1 15.7849 10.0727 2.34982
 756 1 15.7849 7.19481 2.34982
 757 1 13.2926 11.5117 2.34982
 758 1 11.631 11.5117 4.69963
 759 1 14.1234 12.9507 4.69963
 760 1 14.1234 10.0727 4.69963
 761 1 11.631 14.3896 4.69963
 762 1 9.96942 14.3896 7.04945
 763 1 12.4618 15.8286 7.04945
 764 1 12.4618 12.9507 7.04945
 765 1 9.96942 17.2675 7.04945
 766 1 8.30785 17.2675 9.39927
 767 1 10.8002 18.7065 9.39927
 768 1 10.8002 15.8286 9.39927
 769 1 8.30785 20.1455 9.39927
 770 1 6.64628 20.1455 11.7491
 771 1 9.13864 21.5844 11.7491
 772 1 9.13864 18.7065 11.7491
 773 1 6.64628 23.0234 11.7491
 774 1 4.98471 23.0234 14.0989
 775 1 7.47707 24.4624 14.0989
 776 1 7.47707 21.5844 14.0989
 777 1 4.98471 25.9013 14.0989
 778 1 14.9541 0 0
 779 1 17.4465 1.43896 0
 780 1 14.9541 2.87792 0
 781 1 13.2926 2.87792 2.34982
 782 1 15.7849 4.31689 2.34982
 783 1 15.7849 1.43896 2.34982
 784 1 13.2926 5.75585 2.34982
 785 1 11.631 5.75585 4.69963
 786 1 14.1234 7.19481 4.69963
 787 1 14.1234 4.31689 4.69963
 788 1 11.631 8.63377 4.69963
 789 1 9.96942 8.63377 7.04945
 790 1 12.4618 10.0727 7.04945
 791 1 12.4618 7.19481 7.04945
 792 1 9.96942 11.5117 7.04945
 793 1 8.30785 11.5117 9.39927
 794 1 10.8002 12.9507 9.39927
 795 1 10.8002 10.0727 9.39927
 796 1 8.30785 14.3896 9.39927
 797 1 6.64628 14.3896 11.7491
 798 1 9.13864 15.8286 11.7491
 799 1 9.13864 12.9507 11.7491
 800 1 6.64628 17.2675 11.7491
 801 1 4.98471 17.2675 14.0989
 802 1 7.47707 18.7065 14.0989
 803 1 7.47707 15.8286 14.0989
 804 1 4.98471 20.1455 14.0989
 805 1 13.2926 0 2.34982
 806 1 11.631 0 4.69963
 807 1 14.1234 1.43896 4.69963
 808 1 11.631 2.87792 4.69963
 809 1 9.96942 2.87792 7.04945
 810 1 12.4618 4.31689 7.04945
 811 1 12.4618 1.43896 7.04945
 812 1 9.96942 5.75585 7.04945
 813 1 8.30785 5.75585 9.39927
 814 1 10.8002 7.19481 9.39927
 815 1 10.8002 4.31689 9.39927
 816 1 8.30785 8.63377 9.39927
 817 1 6.64628 8.63377 11.7491
 818 1 9.13864 10.0727 11.7491
 819 1 9.13864 7.19481 11.7491
 820 1 6.64628 11.5117 11.7491
 821 1 4.98471 11.5117 14.0989
 822 1 7.47707 12.9507 14.0989
 823 1 7.47707 10.0727 14.0989
 824 1 4.98471 14.3896 14.0989
 825 1 9.96942 0 7.04945
 826 1 8.30785 0 9.39927
 827 1 10.8002 1.43896 9.39927
 828 1 8.30785 2.87792 9.39927
 829 1 6.64628 2.87792 11.7491
 830 1 9.13864 4.31689 11.7491
 831 1 9.13864 1.43896 11.7491
 832 1 6.64628 5.75585 11.7491
 833 1 4.98471 5.75585 14.0989
 834 1 7.47707 7.19481 14.0989
 835 1 7.47707 4.31689 14.0989
 836 1 4.98471 8.63377 14.0989
 837 1 6.64628 0 11.7491
 838 1 4.98471 0 14.0989
 839 1 7.47707 1.43896 14.0989
 840 1 4.98471 2.87792 14.0989
 841 1 22.4312 58.9975 1.77636e-15
 842 1 19.9388 54.6806 0
 843 1 22.4312 56.1195 1.77636e-15
 844 1 22.4312 53.2416 0
 845 1 19.9388 57.5585 0
 846 1 18.2773 57.5585 2.34982
 847 1 20.7696 58.9975 2.34982
 848 1 20.7696 56.1195 2.34982
 849 1 19.1081 58.9975 4.69963
 850 1 19.9388 48.9247 1.77636e-15
 851 1 22.4312 50.3637 0
 852 1 22.4312 47.4858 1.77636e-15
 853 1 19.9388 51.8026 0
 854 1 18.2773 51.8026 2.34982
 855 1 20.7696 53.2416 2.34982
 856 1 20.7696 50.3637 2.34982
 857 1 18.2773 54.6806 2.34982
 858 1 16.6157 54.6806 4.69963
 859 1 19.1081 56.1195 4.69963
 860 1 19.1081 53.2416 4.69963
 861 1 16.6157 57.5585 4.69963
 862 1 14.9541 57.5585 7.04945
 863 1 17.4465 58.9975 7.04945
 864 1 17.4465 56.1195 7.04945
 865 1 15.7849 58.9975 9.39927
 866 1 19.9388 43.1689 0
 867 1 22.4312 44.6078 1.77636e-15
 868 1 22.4312 41.7299 0
 869 1 19.9388 46.0468 0
 870 1 18.2773 46.0468 2.34982
 871 1 20.7696 47.4858 2.34982
 872 1 20.7696 44.6078 2.34982
 873 1 18.2773 48.9247 2.34982
 874 1 16.6157 48.9247 4.69963
 875 1 19.1081 50.3637 4.69963
 876 1 19.1081 47.4858 4.69963
 877 1 16.6157 51.8026 4.69963
 878 1 14.9541 51.8026 7.04945
 879 1 17.4465 53.2416 7.04945
 880 1 17.4465 50.3637 7.04945
 881 1 14.9541 54.6806 7.04945
 882 1 13.2926 54.6806 9.39927
 883 1 15.7849 56.1195 9.39927
 884 1 15.7849 53.2416 9.39927
 885 1 13.2926 57.5585 9.39927
 886 1 11.631 57.5585 11.7491
 887 1 14.1234 58.9975 11.7491
 888 1 14.1234 56.1195 11.7491
 889 1 12.4618 58.9975 14.0989
 890 1 19.9388 37.413 1.77636e-15
 891 1 22.4312 38.852 0
 892 1 22.4312 35.9741 1.77636e-15
 893 1 19.9388 40.2909 0
 894 1 18.2773 40.2909 2.34982
 895 1 20.7696 41.7299 2.34982
 896 1 20.7696 38.852 2.34982
 897 1 18.2773 43.1689 2.34982
 898 1 16.6157 43.1689 4.69963
 899 1 19.1081 44.6078 4.69963
 900 1 19.1081 41.7299 4.69963
 901 1 16.6157 46.0468 4.69963
 902 1 14.9541 46.0468 7.04945
 903 1 17.4465 47.4858 7.04945
 904 1 17.4465 44.6078 7.04945
 905 1 14.9541 48.9247 7.04945
 906 1 13.2926 48.9247 9.39927
 907 1 15.7849 50.3637 9.39927
 908 1 15.7849 47.4858 9.39927
 909 1 13.2926 51.8026 9.39927
 910 1 11.631 51.8026 11.7491
 911 1 14.1234 53.2416 11.7491
 912 1 14.1234 50.3637 11.7491
 913 1 11.631 54.6806 11.7491
 914 1 9.96942 54.6806 14.0989
 915 1 12.4618 56.1195 14.0989
 916 1 12.4618 53.2416 14.0989
 917 1 9.96942 57.5585 14.0989
 918 1 19.9388 31.6572 0
 919 1 22.4312 33.0961 1.77636e-15
 920 1 22.4312 30.2182 0
 921 1 19.9388 34.5351 0
 922 1 18.2773 34.5351 2.34982
 923 1 20.7696 35.9741 2.34982
 924 1 20.7696 33.0961 2.34982
 925 1 18.2773 37.413 2.34982
 926 1 16.6157 37.413 4.69963
 927 1 19.1081 38.852 4.69963
 928 1 19.1081 35.9741 4.69963
 929 1 16.6157 40.2909 4.69963
 930 1 14.9541 40.2909 7.04945
 931 1 17.4465 41.7299 7.04945
 932 1 17.4465 38.852 7.04945
 933 1 14.9541 43.1689 7.04945
 934 1 13.2926 43.1689 9.39927
 935 1 15.7849 44.6078 9.39927
 936 1 15.7849 41.7299 9.39927
 937 1 13.2926 46.0468 9.39927
 938 1 11.631 46.0468 11.7491
 939 1 14.1234 47.4858 11.7491
 940 1 14.1234 44.6078 11.7491
 941 1 11.631 48.9247 11.7491
 942 1 9.96942 48.9247 14.0989
 943 1 12.4618 50.3637 14.0989
 944 1 12.4618 47.4858 14.0989
 945 1 9.96942 51.8026 14.0989
 946 1 19.9388 25.9013 0
 947 1 22.4312 27.3403 0
 948 1 22.4312 24.4624 0
 949 1 19.9388 28.7792 0
 950 1 18.2773 28.7792 2.34982
 951 1 20.7696 30.2182 2.34982
 952 1 20.7696 27.3403 2.34982
 953 1 18.2773 31.6572 2.34982
 954 1 16.6157 31.6572 4.69963
 955 1 19.1081 33.0961 4.69963
 956 1 19.1081 30.2182 4.69963
 957 1 16.6157 34.5351 4.69963
 958 1 14.9541 34.5351 7.04945
 959 1 17.4465 35.9741 7.04945
 960 1 17.4465 33.0961 7.04945
 961 1 14.9541 37.413 7.04945
 962 1 13.2926 37.413 9.39927
 963 1 15.7849 38.852 9.39927
 964 1 15.7849 35.9741 9.39927
 965 1 13.2926 40.2909 9.39927
 966 1 11.631 40.2909 11.7491
 967 1 14.1234 41.7299 11.7491
 968 1 14.1234 38.852 11.7491
 969 1 11.631 43.1689 11.7491
 970 1 9.96942 43.1689 14.0989
 971 1 12.4618 44.6078 14.0989
 972 1 12.4618 41.7299 14.0989
 973 1 9.96942 46.0468 14.0989
 974 1 19.9388 20.1455 0
 975 1 22.4312 21.5844 1.77636e-15
 976 1 22.4312 18.7065 0
 977 1 19.9388 23.0234 0
 978 1 18.2773 23.0234 2.34982
 979 1 20.7696 24.4624 2.34982
 980 1 20.7696 21.5844 2.34982
 981 1 18.2773 25.9013 2.34982
 982 1 16.6157 25.9013 4.69963
 983 1 19.1081 27.3403 4.69963
 984 1 19.1081 24.4624 4.69963
 985 1 16.6157 28.7792 4.69963
 986 1 14.9541 28.7792 7.04945
 987 1 17.4465 30.2182 7.04945
 988 1 17.4465 27.3403 7.04945
 989 1 14.9541 31.6572 7.04945
 990 1 13.2926 31.6572 9.39927
 991 1 15.7849 33.0961 9.39927
 992 1 15.7849 30.2182 9.39927
 993 1 13.2926 34.5351 9.39927
 994 1 11.631 34.5351 11.7491
 995 1 14.1234 35.9741 11.7491
 996 1 14.1234 33.0961 11.7491
 997 1 11.631 37.413 11.7491
 998 1 9.96942 37.413 14.0989
 999 1 12.4618 38.852 14.0989
 1000 1 12.4618 35.9741 14.0989
 1001 1 9.96942 40.2909 14.0989
 1002 1 19.9388 14.3896 0
 1003 1 22.4312 15.8286 1.77636e-15
 1004 1 22.4312 12.9507 0
 1005 1 19.9388 17.2675 0
 1006 1 18.2773 17.2675 2.34982
 1007 1 20.7696 18.7065 2.34982