LAMMPS 2005 data file for finalStructure

    425 atoms
    400 bonds
    750 angles
    900 dihedrals
      0 impropers

   3 atom types
   2 bond types
   3 angle types
   1 dihedral types

    -4.572417736    13.144835472 xlo xhi
    -3.947477579    11.894954681 ylo yhi
    -0.958519816     8.859869003 zlo zhi

Masses

   1  14.006700
   2  12.011150
   3   1.007970

Pair Coeffs

   1   0.1669999743   3.5012320066 
   2   0.0389999952   3.8754094636 
   3   0.0380000011   2.4499714540 

Bond Coeffs

  1   377.5752     1.4600 
  2   340.6175     1.1050 

Angle Coeffs

  1    37.0000   120.0000 
  2    51.5000   109.5000 
  3    39.5000   106.4000 

Dihedral Coeffs

  1     0.0000     1.0000     0.0000 

Atoms

      1      0   1 -0.628400    -2.291467190    -1.977835894    -0.010714110
      2      0   2  0.248100    -0.766656160    -0.651439190     0.024382487
      3      0   3  0.053000     0.000000000     0.000000000     0.000000000
      4      0   3  0.053000    -0.458373696    -0.363713324     0.980943203
      5      0   3  0.053000    -0.408403814    -0.343694568    -0.876086712
      6      0   2  0.248100    -2.048074007    -1.790826201    -0.008027054
      7      0   3  0.053000    -1.598803520    -1.393725872     0.962667942
      8      0   3  0.053000    -1.449611902    -1.288861275    -0.893858731
      9      0   3  0.053000    -2.870529890    -2.517418385    -0.104476050
     10      0   2  0.248100    -3.812364340    -3.300953627    -0.035752572
     11      0   3  0.053000    -4.572417736    -3.947477579    -0.078262374
     12      0   3  0.053000    -4.156072617    -3.594718456     0.901932716
     13      0   3  0.053000    -4.134031296    -3.600693226    -0.958519816
     14      0   2  0.248100    -2.524765015    -2.156012058    -0.008248817
     15      0   3  0.053000    -1.693124056    -1.423176408    -0.035646453
     16      0   3  0.053000    -3.038123608    -2.583670616     0.932865918
     17      0   3  0.053000    -3.073604345    -2.638592720    -0.923458576
     18      0   1 -0.628400     4.280950546    -1.977835894    -0.010714110
     19      0   2  0.248100     5.805761337    -0.651439190     0.024382487
     20      0   3  0.053000     6.572417736     0.000000000     0.000000000
     21      0   3  0.053000     6.114044189    -0.363713324     0.980943203
     22      0   3  0.053000     6.164013863    -0.343694568    -0.876086712
     23      0   2  0.248100     4.524343491    -1.790826201    -0.008027054
     24      0   3  0.053000     4.973614216    -1.393725872     0.962667942
     25      0   3  0.053000     5.122805595    -1.288861275    -0.893858731
     26      0   3  0.053000     3.701887846    -2.517418385    -0.104476050
     27      0   2  0.248100     2.760053396    -3.300953627    -0.035752572
     28      0   3  0.053000     2.000000000    -3.947477579    -0.078262374
     29      0   3  0.053000     2.416345119    -3.594718456     0.901932716
     30      0   3  0.053000     2.438386440    -3.600693226    -0.958519816
     31      0   2  0.248100     4.047652721    -2.156012058    -0.008248817
     32      0   3  0.053000     4.879293442    -1.423176408    -0.035646453
     33      0   3  0.053000     3.534294128    -2.583670616     0.932865918
     34      0   3  0.053000     3.498813391    -2.638592720    -0.923458576
     35      0   1 -0.628400    10.853368759    -1.977835894    -0.010714110
     36      0   2  0.248100    12.378179550    -0.651439190     0.024382487
     37      0   3  0.053000    13.144835472     0.000000000     0.000000000
     38      0   3  0.053000    12.686461449    -0.363713324     0.980943203
     39      0   3  0.053000    12.736432076    -0.343694568    -0.876086712
     40      0   2  0.248100    11.096761703    -1.790826201    -0.008027054
     41      0   3  0.053000    11.546031952    -1.393725872     0.962667942
     42      0   3  0.053000    11.695223808    -1.288861275    -0.893858731
     43      0   3  0.053000    10.274305344    -2.517418385    -0.104476050
     44      0   2  0.248100     9.332470894    -3.300953627    -0.035752572
     45      0   3  0.053000     8.572418213    -3.947477579    -0.078262374
     46      0   3  0.053000     8.988762856    -3.594718456     0.901932716
     47      0   3  0.053000     9.010804176    -3.600693226    -0.958519816
     48      0   2  0.248100    10.620070457    -2.156012058    -0.008248817
     49      0   3  0.053000    11.451711655    -1.423176408    -0.035646453
     50      0   3  0.053000    10.106712341    -2.583670616     0.932865918
     51      0   3  0.053000    10.071230888    -2.638592720    -0.923458576
     52      0   1 -0.628400    -2.291467190     3.969641447    -0.010714110
     53      0   2  0.248100    -0.766656160     5.296038151     0.024382487
     54      0   3  0.053000     0.000000000     5.947477341     0.000000000
     55      0   3  0.053000    -0.458373696     5.583764076     0.980943203
     56      0   3  0.053000    -0.408403814     5.603782654    -0.876086712
     57      0   2  0.248100    -2.048074007     4.156651020    -0.008027054
     58      0   3  0.053000    -1.598803520     4.553751469     0.962667942
     59      0   3  0.053000    -1.449611902     4.658616066    -0.893858731
     60      0   3  0.053000    -2.870529890     3.430058956    -0.104476050
     61      0   2  0.248100    -3.812364340     2.646523714    -0.035752572
     62      0   3  0.053000    -4.572417736     1.999999762    -0.078262374
     63      0   3  0.053000    -4.156072617     2.352758884     0.901932716
     64      0   3  0.053000    -4.134031296     2.346784115    -0.958519816
     65      0   2  0.248100    -2.524765015     3.791465282    -0.008248817
     66      0   3  0.053000    -1.693124056     4.524301052    -0.035646453
     67      0   3  0.053000    -3.038123608     3.363806725     0.932865918
     68      0   3  0.053000    -3.073604345     3.308884621    -0.923458576
     69      0   1 -0.628400     4.280950546     3.969641447    -0.010714110
     70      0   2  0.248100     5.805761337     5.296038151     0.024382487
     71      0   3  0.053000     6.572417736     5.947477341     0.000000000
     72      0   3  0.053000     6.114044189     5.583764076     0.980943203
     73      0   3  0.053000     6.164013863     5.603782654    -0.876086712
     74      0   2  0.248100     4.524343491     4.156651020    -0.008027054
     75      0   3  0.053000     4.973614216     4.553751469     0.962667942
     76      0   3  0.053000     5.122805595     4.658616066    -0.893858731
     77      0   3  0.053000     3.701887846     3.430058956    -0.104476050
     78      0   2  0.248100     2.760053396     2.646523714    -0.035752572
     79      0   3  0.053000     2.000000000     1.999999762    -0.078262374
     80      0   3  0.053000     2.416345119     2.352758884     0.901932716
     81      0   3  0.053000     2.438386440     2.346784115    -0.958519816
     82      0   2  0.248100     4.047652721     3.791465282    -0.008248817
     83      0   3  0.053000     4.879293442     4.524301052    -0.035646453
     84      0   3  0.053000     3.534294128     3.363806725     0.932865918
     85      0   3  0.053000     3.498813391     3.308884621    -0.923458576
     86      0   1 -0.628400    10.853368759     3.969641447    -0.010714110
     87      0   2  0.248100    12.378179550     5.296038151     0.024382487
     88      0   3  0.053000    13.144835472     5.947477341     0.000000000
     89      0   3  0.053000    12.686461449     5.583764076     0.980943203
     90      0   3  0.053000    12.736432076     5.603782654    -0.876086712
     91      0   2  0.248100    11.096761703     4.156651020    -0.008027054
     92      0   3  0.053000    11.546031952     4.553751469     0.962667942
     93      0   3  0.053000    11.695223808     4.658616066    -0.893858731
     94      0   3  0.053000    10.274305344     3.430058956    -0.104476050
     95      0   2  0.248100     9.332470894     2.646523714    -0.035752572
     96      0   3  0.053000     8.572418213     1.999999762    -0.078262374
     97      0   3  0.053000     8.988762856     2.352758884     0.901932716
     98      0   3  0.053000     9.010804176     2.346784115    -0.958519816
     99      0   2  0.248100    10.620070457     3.791465282    -0.008248817
    100      0   3  0.053000    11.451711655     4.524301052    -0.035646453
    101      0   3  0.053000    10.106712341     3.363806725     0.932865918
    102      0   3  0.053000    10.071230888     3.308884621    -0.923458576
    103      0   1 -0.628400    -2.291467190     9.917119026    -0.010714110
    104      0   2  0.248100    -0.766656160    11.243515015     0.024382487
    105      0   3  0.053000     0.000000000    11.894954681     0.000000000
    106      0   3  0.053000    -0.458373696    11.531241417     0.980943203
    107      0   3  0.053000    -0.408403814    11.551259995    -0.876086712
    108      0   2  0.248100    -2.048074007    10.104128838    -0.008027054
    109      0   3  0.053000    -1.598803520    10.501228333     0.962667942
    110      0   3  0.053000    -1.449611902    10.606093407    -0.893858731
    111      0   3  0.053000    -2.870529890     9.377536774    -0.104476050
    112      0   2  0.248100    -3.812364340     8.594000816    -0.035752572
    113      0   3  0.053000    -4.572417736     7.947477341    -0.078262374
    114      0   3  0.053000    -4.156072617     8.300235748     0.901932716
    115      0   3  0.053000    -4.134031296     8.294261932    -0.958519816
    116      0   2  0.248100    -2.524765015     9.738943100    -0.008248817
    117      0   3  0.053000    -1.693124056    10.471777916    -0.035646453
    118      0   3  0.053000    -3.038123608     9.311284065     0.932865918
    119      0   3  0.053000    -3.073604345     9.256361961    -0.923458576
    120      0   1 -0.628400     4.280950546     9.917119026    -0.010714110
    121      0   2  0.248100     5.805761337    11.243515015     0.024382487
    122      0   3  0.053000     6.572417736    11.894954681     0.000000000
    123      0   3  0.053000     6.114044189    11.531241417     0.980943203
    124      0   3  0.053000     6.164013863    11.551259995    -0.876086712
    125      0   2  0.248100     4.524343491    10.104128838    -0.008027054
    126      0   3  0.053000     4.973614216    10.501228333     0.962667942
    127      0   3  0.053000     5.122805595    10.606093407    -0.893858731
    128      0   3  0.053000     3.701887846     9.377536774    -0.104476050
    129      0   2  0.248100     2.760053396     8.594000816    -0.035752572
    130      0   3  0.053000     2.000000000     7.947477341    -0.078262374
    131      0   3  0.053000     2.416345119     8.300235748     0.901932716
    132      0   3  0.053000     2.438386440     8.294261932    -0.958519816
    133      0   2  0.248100     4.047652721     9.738943100    -0.008248817
    134      0   3  0.053000     4.879293442    10.471777916    -0.035646453
    135      0   3  0.053000     3.534294128     9.311284065     0.932865918
    136      0   3  0.053000     3.498813391     9.256361961    -0.923458576
    137      0   1 -0.628400    10.853368759     9.917119026    -0.010714110
    138      0   2  0.248100    12.378179550    11.243515015     0.024382487
    139      0   3  0.053000    13.144835472    11.894954681     0.000000000
    140      0   3  0.053000    12.686461449    11.531241417     0.980943203
    141      0   3  0.053000    12.736432076    11.551259995    -0.876086712
    142      0   2  0.248100    11.096761703    10.104128838    -0.008027054
    143      0   3  0.053000    11.546031952    10.501228333     0.962667942
    144      0   3  0.053000    11.695223808    10.606093407    -0.893858731
    145      0   3  0.053000    10.274305344     9.377536774    -0.104476050
    146      0   2  0.248100     9.332470894     8.594000816    -0.035752572
    147      0   3  0.053000     8.572418213     7.947477341    -0.078262374
    148      0   3  0.053000     8.988762856     8.300235748     0.901932716
    149      0   3  0.053000     9.010804176     8.294261932    -0.958519816
    150      0   2  0.248100    10.620070457     9.738943100    -0.008248817
    151      0   3  0.053000    11.451711655    10.471777916    -0.035646453
    152      0   3  0.053000    10.106712341     9.311284065     0.932865918
    153      0   3  0.053000    10.071230888     9.256361961    -0.923458576
    154      0   1 -0.628400    -2.291467190    -1.977835894     3.928749084
    155      0   2  0.248100    -0.766656160    -0.651439190     3.963845730
    156      0   3  0.053000     0.000000000     0.000000000     3.939463139
    157      0   3  0.053000    -0.458373696    -0.363713324     4.920406342
    158      0   3  0.053000    -0.408403814    -0.343694568     3.063376427
    159      0   2  0.248100    -2.048074007    -1.790826201     3.931436062
    160      0   3  0.053000    -1.598803520    -1.393725872     4.902131081
    161      0   3  0.053000    -1.449611902    -1.288861275     3.045604467
    162      0   3  0.053000    -2.870529890    -2.517418385     3.834987164
    163      0   2  0.248100    -3.812364340    -3.300953627     3.903710604
    164      0   3  0.053000    -4.572417736    -3.947477579     3.861200809
    165      0   3  0.053000    -4.156072617    -3.594718456     4.841395855
    166      0   3  0.053000    -4.134031296    -3.600693226     2.980943203
    167      0   2  0.248100    -2.524765015    -2.156012058     3.931214333
    168      0   3  0.053000    -1.693124056    -1.423176408     3.903816700
    169      0   3  0.053000    -3.038123608    -2.583670616     4.872329235
    170      0   3  0.053000    -3.073604345    -2.638592720     3.016004562
    171      0   1 -0.628400     4.280950546    -1.977835894     3.928749084
    172      0   2  0.248100     5.805761337    -0.651439190     3.963845730
    173      0   3  0.053000     6.572417736     0.000000000     3.939463139
    174      0   3  0.053000     6.114044189    -0.363713324     4.920406342
    175      0   3  0.053000     6.164013863    -0.343694568     3.063376427
    176      0   2  0.248100     4.524343491    -1.790826201     3.931436062
    177      0   3  0.053000     4.973614216    -1.393725872     4.902131081
    178      0   3  0.053000     5.122805595    -1.288861275     3.045604467
    179      0   3  0.053000     3.701887846    -2.517418385     3.834987164
    180      0   2  0.248100     2.760053396    -3.300953627     3.903710604
    181      0   3  0.053000     2.000000000    -3.947477579     3.861200809
    182      0   3  0.053000     2.416345119    -3.594718456     4.841395855
    183      0   3  0.053000     2.438386440    -3.600693226     2.980943203
    184      0   2  0.248100     4.047652721    -2.156012058     3.931214333
    185      0   3  0.053000     4.879293442    -1.423176408     3.903816700
    186      0   3  0.053000     3.534294128    -2.583670616     4.872329235
    187      0   3  0.053000     3.498813391    -2.638592720     3.016004562
    188      0   1 -0.628400    10.853368759    -1.977835894     3.928749084
    189      0   2  0.248100    12.378179550    -0.651439190     3.963845730
    190      0   3  0.053000    13.144835472     0.000000000     3.939463139
    191      0   3  0.053000    12.686461449    -0.363713324     4.920406342
    192      0   3  0.053000    12.736432076    -0.343694568     3.063376427
    193      0   2  0.248100    11.096761703    -1.790826201     3.931436062
    194      0   3  0.053000    11.546031952    -1.393725872     4.902131081
    195      0   3  0.053000    11.695223808    -1.288861275     3.045604467
    196      0   3  0.053000    10.274305344    -2.517418385     3.834987164
    197      0   2  0.248100     9.332470894    -3.300953627     3.903710604
    198      0   3  0.053000     8.572418213    -3.947477579     3.861200809
    199      0   3  0.053000     8.988762856    -3.594718456     4.841395855
    200      0   3  0.053000     9.010804176    -3.600693226     2.980943203
    201      0   2  0.248100    10.620070457    -2.156012058     3.931214333
    202      0   3  0.053000    11.451711655    -1.423176408     3.903816700
    203      0   3  0.053000    10.106712341    -2.583670616     4.872329235
    204      0   3  0.053000    10.071230888    -2.638592720     3.016004562
    205      0   1 -0.628400    -2.291467190     3.969641447     3.928749084
    206      0   2  0.248100    -0.766656160     5.296038151     3.963845730
    207      0   3  0.053000     0.000000000     5.947477341     3.939463139
    208      0   3  0.053000    -0.458373696     5.583764076     4.920406342
    209      0   3  0.053000    -0.408403814     5.603782654     3.063376427
    210      0   2  0.248100    -2.048074007     4.156651020     3.931436062
    211      0   3  0.053000    -1.598803520     4.553751469     4.902131081
    212      0   3  0.053000    -1.449611902     4.658616066     3.045604467
    213      0   3  0.053000    -2.870529890     3.430058956     3.834987164
    214      0   2  0.248100    -3.812364340     2.646523714     3.903710604
    215      0   3  0.053000    -4.572417736     1.999999762     3.861200809
    216      0   3  0.053000    -4.156072617     2.352758884     4.841395855
    217      0   3  0.053000    -4.134031296     2.346784115     2.980943203
    218      0   2  0.248100    -2.524765015     3.791465282     3.931214333
    219      0   3  0.053000    -1.693124056     4.524301052     3.903816700
    220      0   3  0.053000    -3.038123608     3.363806725     4.872329235
    221      0   3  0.053000    -3.073604345     3.308884621     3.016004562
    222      0   1 -0.628400     4.280950546     3.969641447     3.928749084
    223      0   2  0.248100     5.805761337     5.296038151     3.963845730
    224      0   3  0.053000     6.572417736     5.947477341     3.939463139
    225      0   3  0.053000     6.114044189     5.583764076     4.920406342
    226      0   3  0.053000     6.164013863     5.603782654     3.063376427
    227      0   2  0.248100     4.524343491     4.156651020     3.931436062
    228      0   3  0.053000     4.973614216     4.553751469     4.902131081
    229      0   3  0.053000     5.122805595     4.658616066     3.045604467
    230      0   3  0.053000     3.701887846     3.430058956     3.834987164
    231      0   2  0.248100     2.760053396     2.646523714     3.903710604
    232      0   3  0.053000     2.000000000     1.999999762     3.861200809
    233      0   3  0.053000     2.416345119     2.352758884     4.841395855
    234      0   3  0.053000     2.438386440     2.346784115     2.980943203
    235      0   2  0.248100     4.047652721     3.791465282     3.931214333
    236      0   3  0.053000     4.879293442     4.524301052     3.903816700
    237      0   3  0.053000     3.534294128     3.363806725     4.872329235
    238      0   3  0.053000     3.498813391     3.308884621     3.016004562
    239      0   1 -0.628400    10.853368759     3.969641447     3.928749084
    240      0   2  0.248100    12.378179550     5.296038151     3.963845730
    241      0   3  0.053000    13.144835472     5.947477341     3.939463139
    242      0   3  0.053000    12.686461449     5.583764076     4.920406342
    243      0   3  0.053000    12.736432076     5.603782654     3.063376427
    244      0   2  0.248100    11.096761703     4.156651020     3.931436062
    245      0   3  0.053000    11.546031952     4.553751469     4.902131081
    246      0   3  0.053000    11.695223808     4.658616066     3.045604467
    247      0   3  0.053000    10.274305344     3.430058956     3.834987164
    248      0   2  0.248100     9.332470894     2.646523714     3.903710604
    249      0   3  0.053000     8.572418213     1.999999762     3.861200809
    250      0   3  0.053000     8.988762856     2.352758884     4.841395855
    251      0   3  0.053000     9.010804176     2.346784115     2.980943203
    252      0   2  0.248100    10.620070457     3.791465282     3.931214333
    253      0   3  0.053000    11.451711655     4.524301052     3.903816700
    254      0   3  0.053000    10.106712341     3.363806725     4.872329235
    255      0   3  0.053000    10.071230888     3.308884621     3.016004562
    256      0   1 -0.628400    -2.291467190     9.917119026     3.928749084
    257      0   2  0.248100    -0.766656160    11.243515015     3.963845730
    258      0   3  0.053000     0.000000000    11.894954681     3.939463139
    259      0   3  0.053000    -0.458373696    11.531241417     4.920406342
    260      0   3  0.053000    -0.408403814    11.551259995     3.063376427
    261      0   2  0.248100    -2.048074007    10.104128838     3.931436062
    262      0   3  0.053000    -1.598803520    10.501228333     4.902131081
    263      0   3  0.053000    -1.449611902    10.606093407     3.045604467
    264      0   3  0.053000    -2.870529890     9.377536774     3.834987164
    265      0   2  0.248100    -3.812364340     8.594000816     3.903710604
    266      0   3  0.053000    -4.572417736     7.947477341     3.861200809
    267      0   3  0.053000    -4.156072617     8.300235748     4.841395855
    268      0   3  0.053000    -4.134031296     8.294261932     2.980943203
    269      0   2  0.248100    -2.524765015     9.738943100     3.931214333
    270      0   3  0.053000    -1.693124056    10.471777916     3.903816700
    271      0   3  0.053000    -3.038123608     9.311284065     4.872329235
    272      0   3  0.053000    -3.073604345     9.256361961     3.016004562
    273      0   1 -0.628400     4.280950546     9.917119026     3.928749084
    274      0   2  0.248100     5.805761337    11.243515015     3.963845730
    275      0   3  0.053000     6.572417736    11.894954681     3.939463139
    276      0   3  0.053000     6.114044189    11.531241417     4.920406342
    277      0   3  0.053000     6.164013863    11.551259995     3.063376427
    278      0   2  0.248100     4.524343491    10.104128838     3.931436062
    279      0   3  0.053000     4.973614216    10.501228333     4.902131081
    280      0   3  0.053000     5.122805595    10.606093407     3.045604467
    281      0   3  0.053000     3.701887846     9.377536774     3.834987164
    282      0   2  0.248100     2.760053396     8.594000816     3.903710604
    283      0   3  0.053000     2.000000000     7.947477341     3.861200809
    284      0   3  0.053000     2.416345119     8.300235748     4.841395855
    285      0   3  0.053000     2.438386440     8.294261932     2.980943203
    286      0   2  0.248100     4.047652721     9.738943100     3.931214333
    287      0   3  0.053000     4.879293442    10.471777916     3.903816700
    288      0   3  0.053000     3.534294128     9.311284065     4.872329235
    289      0   3  0.053000     3.498813391     9.256361961     3.016004562
    290      0   1 -0.628400    10.853368759     9.917119026     3.928749084
    291      0   2  0.248100    12.378179550    11.243515015     3.963845730
    292      0   3  0.053000    13.144835472    11.894954681     3.939463139
    293      0   3  0.053000    12.686461449    11.531241417     4.920406342
    294      0   3  0.053000    12.736432076    11.551259995     3.063376427
    295      0   2  0.248100    11.096761703    10.104128838     3.931436062
    296      0   3  0.053000    11.546031952    10.501228333     4.902131081
    297      0   3  0.053000    11.695223808    10.606093407     3.045604467
    298      0   3  0.053000    10.274305344     9.377536774     3.834987164
    299      0   2  0.248100     9.332470894     8.594000816     3.903710604
    300      0   3  0.053000     8.572418213     7.947477341     3.861200809
    301      0   3  0.053000     8.988762856     8.300235748     4.841395855
    302      0   3  0.053000     9.010804176     8.294261932     2.980943203
    303      0   2  0.248100    10.620070457     9.738943100     3.931214333
    304      0   3  0.053000    11.451711655    10.471777916     3.903816700
    305      0   3  0.053000    10.106712341     9.311284065     4.872329235
    306      0   3  0.053000    10.071230888     9.256361961     3.016004562
    307      0   1 -0.628400    -2.291467190    -1.977835894     7.868212223
    308      0   2  0.248100    -0.766656160    -0.651439190     7.903308868
    309      0   3  0.053000     0.000000000     0.000000000     7.878926277
    310      0   3  0.053000    -0.458373696    -0.363713324     8.859869003
    311      0   3  0.053000    -0.408403814    -0.343694568     7.002839565
    312      0   2  0.248100    -2.048074007    -1.790826201     7.870899200
    313      0   3  0.053000    -1.598803520    -1.393725872     8.841594696
    314      0   3  0.053000    -1.449611902    -1.288861275     6.985067368
    315      0   3  0.053000    -2.870529890    -2.517418385     7.774450302
    316      0   2  0.248100    -3.812364340    -3.300953627     7.843173504
    317      0   3  0.053000    -4.572417736    -3.947477579     7.800663948
    318      0   3  0.053000    -4.156072617    -3.594718456     8.780858994
    319      0   3  0.053000    -4.134031296    -3.600693226     6.920406342
    320      0   2  0.248100    -2.524765015    -2.156012058     7.870677471
    321      0   3  0.053000    -1.693124056    -1.423176408     7.843279839
    322      0   3  0.053000    -3.038123608    -2.583670616     8.811792374
    323      0   3  0.053000    -3.073604345    -2.638592720     6.955467701
    324      0   1 -0.628400     4.280950546    -1.977835894     7.868212223
    325      0   2  0.248100     5.805761337    -0.651439190     7.903308868
    326      0   3  0.053000     6.572417736     0.000000000     7.878926277
    327      0   3  0.053000     6.114044189    -0.363713324     8.859869003
    328      0   3  0.053000     6.164013863    -0.343694568     7.002839565
    329      0   2  0.248100     4.524343491    -1.790826201     7.870899200
    330      0   3  0.053000     4.973614216    -1.393725872     8.841594696
    331      0   3  0.053000     5.122805595    -1.288861275     6.985067368
    332      0   3  0.053000     3.701887846    -2.517418385     7.774450302
    333      0   2  0.248100     2.760053396    -3.300953627     7.843173504
    334      0   3  0.053000     2.000000000    -3.947477579     7.800663948
    335      0   3  0.053000     2.416345119    -3.594718456     8.780858994
    336      0   3  0.053000     2.438386440    -3.600693226     6.920406342
    337      0   2  0.248100     4.047652721    -2.156012058     7.870677471
    338      0   3  0.053000     4.879293442    -1.423176408     7.843279839
    339      0   3  0.053000     3.534294128    -2.583670616     8.811792374
    340      0   3  0.053000     3.498813391    -2.638592720     6.955467701
    341      0   1 -0.628400    10.853368759    -1.977835894     7.868212223
    342      0   2  0.248100    12.378179550    -0.651439190     7.903308868
    343      0   3  0.053000    13.144835472     0.000000000     7.878926277
    344      0   3  0.053000    12.686461449    -0.363713324     8.859869003
    345      0   3  0.053000    12.736432076    -0.343694568     7.002839565
    346      0   2  0.248100    11.096761703    -1.790826201     7.870899200
    347      0   3  0.053000    11.546031952    -1.393725872     8.841594696
    348      0   3  0.053000    11.695223808    -1.288861275     6.985067368
    349      0   3  0.053000    10.274305344    -2.517418385     7.774450302
    350      0   2  0.248100     9.332470894    -3.300953627     7.843173504
    351      0   3  0.053000     8.572418213    -3.947477579     7.800663948
    352      0   3  0.053000     8.988762856    -3.594718456     8.780858994
    353      0   3  0.053000     9.010804176    -3.600693226     6.920406342
    354      0   2  0.248100    10.620070457    -2.156012058     7.870677471
    355      0   3  0.053000    11.451711655    -1.423176408     7.843279839
    356      0   3  0.053000    10.106712341    -2.583670616     8.811792374
    357      0   3  0.053000    10.071230888    -2.638592720     6.955467701
    358      0   1 -0.628400    -2.291467190     3.969641447     7.868212223
    359      0   2  0.248100    -0.766656160     5.296038151     7.903308868
    360      0   3  0.053000     0.000000000     5.947477341     7.878926277
    361      0   3  0.053000    -0.458373696     5.583764076     8.859869003
    362      0   3  0.053000    -0.408403814     5.603782654     7.002839565
    363      0   2  0.248100    -2.048074007     4.156651020     7.870899200
    364      0   3  0.053000    -1.598803520     4.553751469     8.841594696
    365      0   3  0.053000    -1.449611902     4.658616066     6.985067368
    366      0   3  0.053000    -2.870529890     3.430058956     7.774450302
    367      0   2  0.248100    -3.812364340     2.646523714     7.843173504
    368      0   3  0.053000    -4.572417736     1.999999762     7.800663948
    369      0   3  0.053000    -4.156072617     2.352758884     8.780858994
    370      0   3  0.053000    -4.134031296     2.346784115     6.920406342
    371      0   2  0.248100    -2.524765015     3.791465282     7.870677471
    372      0   3  0.053000    -1.693124056     4.524301052     7.843279839
    373      0   3  0.053000    -3.038123608     3.363806725     8.811792374
    374      0   3  0.053000    -3.073604345     3.308884621     6.955467701
    375      0   1 -0.628400     4.280950546     3.969641447     7.868212223
    376      0   2  0.248100     5.805761337     5.296038151     7.903308868
    377      0   3  0.053000     6.572417736     5.947477341     7.878926277
    378      0   3  0.053000     6.114044189     5.583764076     8.859869003
    379      0   3  0.053000     6.164013863     5.603782654     7.002839565
    380      0   2  0.248100     4.524343491     4.156651020     7.870899200