LAMMPS data file containing the original structures and the polarizable gold

6750 atoms
3550 bonds
750 angles
900 dihedrals
0 impropers

6 atom types
3 bond types
3 angle types
1 dihedral types

-3.000000 62.014999 xlo xhi
-3.000000 62.014999 ylo yhi
-3.000000 34.467728 zlo zhi

Masses

1 14.006700
2 12.011150
3 1.007970
4 79.908997
5 195.960000
6 1.000000

Atoms

1 0 1 -0.628400 22.962828 25.371517 21.422163
2 0 2 0.248100 24.041231 26.112572 22.185465
3 0 3 0.053000 24.403549 26.169872 22.413322
4 0 3 0.053000 23.703709 26.418339 22.629244
5 0 3 0.053000 25.034122 26.450844 22.233210
6 0 2 0.248100 22.791185 24.968285 21.301325
7 0 3 0.053000 22.357918 25.059191 21.686665
8 0 3 0.053000 23.739531 25.109440 21.325750
9 0 3 0.053000 22.120882 24.353767 20.772207
10 0 2 0.248100 21.876719 24.627003 20.660612
11 0 3 0.053000 21.566046 24.573584 20.421043
12 0 3 0.053000 20.880505 24.313877 20.636971
13 0 3 0.053000 22.169777 24.297642 20.210001
14 0 2 0.248100 23.138039 25.779419 21.549072
15 0 3 0.053000 23.898762 26.395123 22.052900
16 0 3 0.053000 22.207161 25.671011 21.575443
17 0 3 0.053000 23.466265 25.648384 21.130932
18 0 4 -1.000000 25.548765 26.712034 22.517673
19 0 1 -0.628400 29.631088 25.371517 21.422163
20 0 2 0.248100 30.709492 26.112572 22.185465
21 0 3 0.053000 31.071810 26.169872 22.413322
22 0 3 0.053000 30.371971 26.418339 22.629244
23 0 3 0.053000 31.702383 26.450844 22.233210
24 0 2 0.248100 29.459446 24.968285 21.301325
25 0 3 0.053000 29.026180 25.059191 21.686665
26 0 3 0.053000 30.407791 25.109440 21.325750
27 0 3 0.053000 28.789143 24.353767 20.772207
28 0 2 0.248100 28.544979 24.627003 20.660612
29 0 3 0.053000 28.234308 24.573584 20.421043
30 0 3 0.053000 27.548765 24.313877 20.636971
31 0 3 0.053000 28.838037 24.297642 20.210001
32 0 2 0.248100 29.806299 25.779419 21.549072
33 0 3 0.053000 30.567022 26.395123 22.052900
34 0 3 0.053000 28.875423 25.671011 21.575443
35 0 3 0.053000 30.134525 25.648384 21.130932
36 0 4 -1.000000 32.217026 26.712034 22.517673
37 0 1 -0.628400 36.299347 25.371517 21.422163
38 0 2 0.248100 37.377754 26.112572 22.185465
39 0 3 0.053000 37.740070 26.169872 22.413322
40 0 3 0.053000 37.040230 26.418339 22.629244
41 0 3 0.053000 38.370644 26.450844 22.233210
42 0 2 0.248100 36.127708 24.968285 21.301325
43 0 3 0.053000 35.694443 25.059191 21.686665
44 0 3 0.053000 37.076050 25.109440 21.325750
45 0 3 0.053000 35.457405 24.353767 20.772207
46 0 2 0.248100 35.213242 24.627003 20.660612
47 0 3 0.053000 34.902569 24.573584 20.421043
48 0 3 0.053000 34.217026 24.313877 20.636971
49 0 3 0.053000 35.506298 24.297642 20.210001
50 0 2 0.248100 36.474560 25.779419 21.549072
51 0 3 0.053000 37.235283 26.395123 22.052900
52 0 3 0.053000 35.543686 25.671011 21.575443
53 0 3 0.053000 36.802788 25.648384 21.130932
54 0 4 -1.000000 38.885288 26.712034 22.517673
55 0 1 -0.628400 22.962828 29.785908 21.422163
56 0 2 0.248100 24.041231 30.526964 22.185465
57 0 3 0.053000 24.403549 30.584263 22.413322
58 0 3 0.053000 23.703709 30.832729 22.629244
59 0 3 0.053000 25.034122 30.865236 22.233210
60 0 2 0.248100 22.791185 29.382677 21.301325
61 0 3 0.053000 22.357918 29.473583 21.686665
62 0 3 0.053000 23.739531 29.523830 21.325750
63 0 3 0.053000 22.120882 28.768158 20.772207
64 0 2 0.248100 21.876719 29.041395 20.660612
65 0 3 0.053000 21.566046 28.987976 20.421043
66 0 3 0.053000 20.880505 28.728270 20.636971
67 0 3 0.053000 22.169777 28.712034 20.210001
68 0 2 0.248100 23.138039 30.193810 21.549072
69 0 3 0.053000 23.898762 30.809513 22.052900
70 0 3 0.053000 22.207161 30.085403 21.575443
71 0 3 0.053000 23.466265 30.062775 21.130932
72 0 4 -1.000000 25.548765 31.126427 22.517673
73 0 1 -0.628400 29.631088 29.785908 21.422163
74 0 2 0.248100 30.709492 30.526964 22.185465
75 0 3 0.053000 31.071810 30.584263 22.413322
76 0 3 0.053000 30.371971 30.832729 22.629244
77 0 3 0.053000 31.702383 30.865236 22.233210
78 0 2 0.248100 29.459446 29.382677 21.301325
79 0 3 0.053000 29.026180 29.473583 21.686665
80 0 3 0.053000 30.407791 29.523830 21.325750
81 0 3 0.053000 28.789143 28.768158 20.772207
82 0 2 0.248100 28.544979 29.041395 20.660612
83 0 3 0.053000 28.234308 28.987976 20.421043
84 0 3 0.053000 27.548765 28.728270 20.636971
85 0 3 0.053000 28.838037 28.712034 20.210001
86 0 2 0.248100 29.806299 30.193810 21.549072
87 0 3 0.053000 30.567022 30.809513 22.052900
88 0 3 0.053000 28.875423 30.085403 21.575443
89 0 3 0.053000 30.134525 30.062775 21.130932
90 0 4 -1.000000 32.217026 31.126427 22.517673
91 0 1 -0.628400 36.299347 29.785908 21.422163
92 0 2 0.248100 37.377754 30.526964 22.185465
93 0 3 0.053000 37.740070 30.584263 22.413322
94 0 3 0.053000 37.040230 30.832729 22.629244
95 0 3 0.053000 38.370644 30.865236 22.233210
96 0 2 0.248100 36.127708 29.382677 21.301325
97 0 3 0.053000 35.694443 29.473583 21.686665
98 0 3 0.053000 37.076050 29.523830 21.325750
99 0 3 0.053000 35.457405 28.768158 20.772207
100 0 2 0.248100 35.213242 29.041395 20.660612
101 0 3 0.053000 34.902569 28.987976 20.421043
102 0 3 0.053000 34.217026 28.728270 20.636971
103 0 3 0.053000 35.506298 28.712034 20.210001
104 0 2 0.248100 36.474560 30.193810 21.549072
105 0 3 0.053000 37.235283 30.809513 22.052900
106 0 3 0.053000 35.543686 30.085403 21.575443
107 0 3 0.053000 36.802788 30.062775 21.130932
108 0 4 -1.000000 38.885288 31.126427 22.517673
109 0 1 -0.628400 22.962828 34.200302 21.422163
110 0 2 0.248100 24.041231 34.941357 22.185465
111 0 3 0.053000 24.403549 34.998657 22.413322
112 0 3 0.053000 23.703709 35.247124 22.629244
113 0 3 0.053000 25.034122 35.279629 22.233210
114 0 2 0.248100 22.791185 33.797070 21.301325
115 0 3 0.053000 22.357918 33.887978 21.686665
116 0 3 0.053000 23.739531 33.938225 21.325750
117 0 3 0.053000 22.120882 33.182549 20.772207
118 0 2 0.248100 21.876719 33.455788 20.660612
119 0 3 0.053000 21.566046 33.402367 20.421043
120 0 3 0.053000 20.880505 33.142662 20.636971
121 0 3 0.053000 22.169777 33.126427 20.210001
122 0 2 0.248100 23.138039 34.608200 21.549072
123 0 3 0.053000 23.898762 35.223907 22.052900
124 0 3 0.053000 22.207161 34.499794 21.575443
125 0 3 0.053000 23.466265 34.477165 21.130932
126 0 4 -1.000000 25.548765 35.540817 22.517673
127 0 1 -0.628400 29.631088 34.200302 21.422163
128 0 2 0.248100 30.709492 34.941357 22.185465
129 0 3 0.053000 31.071810 34.998657 22.413322
130 0 3 0.053000 30.371971 35.247124 22.629244
131 0 3 0.053000 31.702383 35.279629 22.233210
132 0 2 0.248100 29.459446 33.797070 21.301325
133 0 3 0.053000 29.026180 33.887978 21.686665
134 0 3 0.053000 30.407791 33.938225 21.325750
135 0 3 0.053000 28.789143 33.182549 20.772207
136 0 2 0.248100 28.544979 33.455788 20.660612
137 0 3 0.053000 28.234308 33.402367 20.421043
138 0 3 0.053000 27.548765 33.142662 20.636971
139 0 3 0.053000 28.838037 33.126427 20.210001
140 0 2 0.248100 29.806299 34.608200 21.549072
141 0 3 0.053000 30.567022 35.223907 22.052900
142 0 3 0.053000 28.875423 34.499794 21.575443
143 0 3 0.053000 30.134525 34.477165 21.130932
144 0 4 -1.000000 32.217026 35.540817 22.517673
145 0 1 -0.628400 36.299347 34.200302 21.422163
146 0 2 0.248100 37.377754 34.941357 22.185465
147 0 3 0.053000 37.740070 34.998657 22.413322
148 0 3 0.053000 37.040230 35.247124 22.629244
149 0 3 0.053000 38.370644 35.279629 22.233210
150 0 2 0.248100 36.127708 33.797070 21.301325
151 0 3 0.053000 35.694443 33.887978 21.686665
152 0 3 0.053000 37.076050 33.938225 21.325750
153 0 3 0.053000 35.457405 33.182549 20.772207
154 0 2 0.248100 35.213242 33.455788 20.660612
155 0 3 0.053000 34.902569 33.402367 20.421043
156 0 3 0.053000 34.217026 33.142662 20.636971
157 0 3 0.053000 35.506298 33.126427 20.210001
158 0 2 0.248100 36.474560 34.608200 21.549072
159 0 3 0.053000 37.235283 35.223907 22.052900
160 0 3 0.053000 35.543686 34.499794 21.575443
161 0 3 0.053000 36.802788 34.477165 21.130932
162 0 4 -1.000000 38.885288 35.540817 22.517673
163 0 1 -0.628400 22.962828 25.371517 25.841406
164 0 2 0.248100 24.041231 26.112572 26.604708
165 0 3 0.053000 24.403549 26.169872 26.832565
166 0 3 0.053000 23.703709 26.418339 27.048485
167 0 3 0.053000 25.034122 26.450844 26.652451
168 0 2 0.248100 22.791185 24.968285 25.720566
169 0 3 0.053000 22.357918 25.059191 26.105907
170 0 3 0.053000 23.739531 25.109440 25.744991
171 0 3 0.053000 22.120882 24.353767 25.191450
172 0 2 0.248100 21.876719 24.627003 25.079853
173 0 3 0.053000 21.566046 24.573584 24.840286
174 0 3 0.053000 20.880505 24.313877 25.056213
175 0 3 0.053000 22.169777 24.297642 24.629244
176 0 2 0.248100 23.138039 25.779419 25.968315
177 0 3 0.053000 23.898762 26.395123 26.472141
178 0 3 0.053000 22.207161 25.671011 25.994686
179 0 3 0.053000 23.466265 25.648384 25.550175
180 0 4 -1.000000 25.548765 26.712034 26.936916
181 0 1 -0.628400 29.631088 25.371517 25.841406
182 0 2 0.248100 30.709492 26.112572 26.604708
183 0 3 0.053000 31.071810 26.169872 26.832565
184 0 3 0.053000 30.371971 26.418339 27.048485
185 0 3 0.053000 31.702383 26.450844 26.652451
186 0 2 0.248100 29.459446 24.968285 25.720566
187 0 3 0.053000 29.026180 25.059191 26.105907
188 0 3 0.053000 30.407791 25.109440 25.744991
189 0 3 0.053000 28.789143 24.353767 25.191450
190 0 2 0.248100 28.544979 24.627003 25.079853
191 0 3 0.053000 28.234308 24.573584 24.840286
192 0 3 0.053000 27.548765 24.313877 25.056213
193 0 3 0.053000 28.838037 24.297642 24.629244
194 0 2 0.248100 29.806299 25.779419 25.968315
195 0 3 0.053000 30.567022 26.395123 26.472141
196 0 3 0.053000 28.875423 25.671011 25.994686
197 0 3 0.053000 30.134525 25.648384 25.550175
198 0 4 -1.000000 32.217026 26.712034 26.936916
199 0 1 -0.628400 36.299347 25.371517 25.841406
200 0 2 0.248100 37.377754 26.112572 26.604708
201 0 3 0.053000 37.740070 26.169872 26.832565
202 0 3 0.053000 37.040230 26.418339 27.048485
203 0 3 0.053000 38.370644 26.450844 26.652451
204 0 2 0.248100 36.127708 24.968285 25.720566
205 0 3 0.053000 35.694443 25.059191 26.105907
206 0 3 0.053000 37.076050 25.109440 25.744991
207 0 3 0.053000 35.457405 24.353767 25.191450
208 0 2 0.248100 35.213242 24.627003 25.079853
209 0 3 0.053000 34.902569 24.573584 24.840286
210 0 3 0.053000 34.217026 24.313877 25.056213
211 0 3 0.053000 35.506298 24.297642 24.629244
212 0 2 0.248100 36.474560 25.779419 25.968315
213 0 3 0.053000 37.235283 26.395123 26.472141
214 0 3 0.053000 35.543686 25.671011 25.994686
215 0 3 0.053000 36.802788 25.648384 25.550175
216 0 4 -1.000000 38.885288 26.712034 26.936916
217 0 1 -0.628400 22.962828 29.785908 25.841406
218 0 2 0.248100 24.041231 30.526964 26.604708
219 0 3 0.053000 24.403549 30.584263 26.832565
220 0 3 0.053000 23.703709 30.832729 27.048485
221 0 3 0.053000 25.034122 30.865236 26.652451
222 0 2 0.248100 22.791185 29.382677 25.720566
223 0 3 0.053000 22.357918 29.473583 26.105907
224 0 3 0.053000 23.739531 29.523830 25.744991
225 0 3 0.053000 22.120882 28.768158 25.191450
226 0 2 0.248100 21.876719 29.041395 25.079853
227 0 3 0.053000 21.566046 28.987976 24.840286
228 0 3 0.053000 20.880505 28.728270 25.056213
229 0 3 0.053000 22.169777 28.712034 24.629244
230 0 2 0.248100 23.138039 30.193810 25.968315
231 0 3 0.053000 23.898762 30.809513 26.472141
232 0 3 0.053000 22.207161 30.085403 25.994686
233 0 3 0.053000 23.466265 30.062775 25.550175
234 0 4 -1.000000 25.548765 31.126427 26.936916
235 0 1 -0.628400 29.631088 29.785908 25.841406
236 0 2 0.248100 30.709492 30.526964 26.604708
237 0 3 0.053000 31.071810 30.584263 26.832565
238 0 3 0.053000 30.371971 30.832729 27.048485
239 0 3 0.053000 31.702383 30.865236 26.652451
240 0 2 0.248100 29.459446 29.382677 25.720566
241 0 3 0.053000 29.026180 29.473583 26.105907
242 0 3 0.053000 30.407791 29.523830 25.744991
243 0 3 0.053000 28.789143 28.768158 25.191450
244 0 2 0.248100 28.544979 29.041395 25.079853
245 0 3 0.053000 28.234308 28.987976 24.840286
246 0 3 0.053000 27.548765 28.728270 25.056213
247 0 3 0.053000 28.838037 28.712034 24.629244
248 0 2 0.248100 29.806299 30.193810 25.968315
249 0 3 0.053000 30.567022 30.809513 26.472141
250 0 3 0.053000 28.875423 30.085403 25.994686
251 0 3 0.053000 30.134525 30.062775 25.550175
252 0 4 -1.000000 32.217026 31.126427 26.936916
253 0 1 -0.628400 36.299347 29.785908 25.841406
254 0 2 0.248100 37.377754 30.526964 26.604708
255 0 3 0.053000 37.740070 30.584263 26.832565
256 0 3 0.053000 37.040230 30.832729 27.048485
257 0 3 0.053000 38.370644 30.865236 26.652451
258 0 2 0.248100 36.127708 29.382677 25.720566
259 0 3 0.053000 35.694443 29.473583 26.105907
260 0 3 0.053000 37.076050 29.523830 25.744991
261 0 3 0.053000 35.457405 28.768158 25.191450
262 0 2 0.248100 35.213242 29.041395 25.079853
263 0 3 0.053000 34.902569 28.987976 24.840286
264 0 3 0.053000 34.217026 28.728270 25.056213
265 0 3 0.053000 35.506298 28.712034 24.629244
266 0 2 0.248100 36.474560 30.193810 25.968315
267 0 3 0.053000 37.235283 30.809513 26.472141
268 0 3 0.053000 35.543686 30.085403 25.994686
269 0 3 0.053000 36.802788 30.062775 25.550175
270 0 4 -1.000000 38.885288 31.126427 26.936916
271 0 1 -0.628400 22.962828 34.200302 25.841406
272 0 2 0.248100 24.041231 34.941357 26.604708
273 0 3 0.053000 24.403549 34.998657 26.832565
274 0 3 0.053000 23.703709 35.247124 27.048485
275 0 3 0.053000 25.034122 35.279629 26.652451
276 0 2 0.248100 22.791185 33.797070 25.720566
277 0 3 0.053000 22.357918 33.887978 26.105907
278 0 3 0.053000 23.739531 33.938225 25.744991
279 0 3 0.053000 22.120882 33.182549 25.191450
280 0 2 0.248100 21.876719 33.455788 25.079853
281 0 3 0.053000 21.566046 33.402367 24.840286
282 0 3 0.053000 20.880505 33.142662 25.056213
283 0 3 0.053000 22.169777 33.126427 24.629244
284 0 2 0.248100 23.138039 34.608200 25.968315
285 0 3 0.053000 23.898762 35.223907 26.472141
286 0 3 0.053000 22.207161 34.499794 25.994686
287 0 3 0.053000 23.466265 34.477165 25.550175
288 0 4 -1.000000 25.548765 35.540817 26.936916
289 0 1 -0.628400 29.631088 34.200302 25.841406
290 0 2 0.248100 30.709492 34.941357 26.604708
291 0 3 0.053000 31.071810 34.998657 26.832565
292 0 3 0.053000 30.371971 35.247124 27.048485
293 0 3 0.053000 31.702383 35.279629 26.652451
294 0 2 0.248100 29.459446 33.797070 25.720566
295 0 3 0.053000 29.026180 33.887978 26.105907
296 0 3 0.053000 30.407791 33.938225 25.744991
297 0 3 0.053000 28.789143 33.182549 25.191450
298 0 2 0.248100 28.544979 33.455788 25.079853
299 0 3 0.053000 28.234308 33.402367 24.840286
300 0 3 0.053000 27.548765 33.142662 25.056213
301 0 3 0.053000 28.838037 33.126427 24.629244
302 0 2 0.248100 29.806299 34.608200 25.968315
303 0 3 0.053000 30.567022 35.223907 26.472141
304 0 3 0.053000 28.875423 34.499794 25.994686
305 0 3 0.053000 30.134525 34.477165 25.550175
306 0 4 -1.000000 32.217026 35.540817 26.936916
307 0 1 -0.628400 36.299347 34.200302 25.841406
308 0 2 0.248100 37.377754 34.941357 26.604708
309 0 3 0.053000 37.740070 34.998657 26.832565
310 0 3 0.053000 37.040230 35.247124 27.048485
311 0 3 0.053000 38.370644 35.279629 26.652451
312 0 2 0.248100 36.127708 33.797070 25.720566
313 0 3 0.053000 35.694443 33.887978 26.105907
314 0 3 0.053000 37.076050 33.938225 25.744991
315 0 3 0.053000 35.457405 33.182549 25.191450
316 0 2 0.248100 35.213242 33.455788 25.079853
317 0 3 0.053000 34.902569 33.402367 24.840286
318 0 3 0.053000 34.217026 33.142662 25.056213
319 0 3 0.053000 35.506298 33.126427 24.629244
320 0 2 0.248100 36.474560 34.608200 25.968315
321 0 3 0.053000 37.235283 35.223907 26.472141
322 0 3 0.053000 35.543686 34.499794 25.994686
323 0 3 0.053000 36.802788 34.477165 25.550175
324 0 4 -1.000000 38.885288 35.540817 26.936916
325 0 1 -0.628400 22.962828 25.371517 30.260647
326 0 2 0.248100 24.041231 26.112572 31.023951
327 0 3 0.053000 24.403549 26.169872 31.251808
328 0 3 0.053000 23.703709 26.418339 31.467728
329 0 3 0.053000 25.034122 26.450844 31.071693
330 0 2 0.248100 22.791185 24.968285 30.139809
331 0 3 0.053000 22.357918 25.059191 30.525150
332 0 3 0.053000 23.739531 25.109440 30.164234
333 0 3 0.053000 22.120882 24.353767 29.610691
334 0 2 0.248100 21.876719 24.627003 29.499096
335 0 3 0.053000 21.566046 24.573584 29.259529
336 0 3 0.053000 20.880505 24.313877 29.475456
337 0 3 0.053000 22.169777 24.297642 29.048485
338 0 2 0.248100 23.138039 25.779419 30.387556
339 0 3 0.053000 23.898762 26.395123 30.891384
340 0 3 0.053000 22.207161 25.671011 30.413927
341 0 3 0.053000 23.466265 25.648384 29.969416
342 0 4 -1.000000 25.548765 26.712034 31.356159
343 0 1 -0.628400 29.631088 25.371517 30.260647
344 0 2 0.248100 30.709492 26.112572 31.023951
345 0 3 0.053000 31.071810 26.169872 31.251808
346 0 3 0.053000 30.371971 26.418339 31.467728
347 0 3 0.053000 31.702383 26.450844 31.071693
348 0 2 0.248100 29.459446 24.968285 30.139809
349 0 3 0.053000 29.026180 25.059191 30.525150
350 0 3 0.053000 30.407791 25.109440 30.164234
351 0 3 0.053000 28.789143 24.353767 29.610691
352 0 2 0.248100 28.544979 24.627003 29.499096
353 0 3 0.053000 28.234308 24.573584 29.259529
354 0 3 0.053000 27.548765 24.313877 29.475456
355 0 3 0.053000 28.838037 24.297642 29.048485
356 0 2 0.248100 29.806299 25.779419 30.387556
357 0 3 0.053000 30.567022 26.395123 30.891384
358 0 3 0.053000 28.875423 25.671011 30.413927
359 0 3 0.053000 30.134525 25.648384 29.969416
360 0 4 -1.000000 32.217026 26.712034 31.356159
361 0 1 -0.628400 36.299347 25.371517 30.260647
362 0 2 0.248100 37.377754 26.112572 31.023951
363 0 3 0.053000 37.740070 26.169872 31.251808
364 0 3 0.053000 37.040230 26.418339 31.467728
365 0 3 0.053000 38.370644 26.450844 31.071693
366 0 2 0.248100 36.127708 24.968285 30.139809
367 0 3 0.053000 35.694443 25.059191 30.525150
368 0 3 0.053000 37.076050 25.109440 30.164234
369 0 3 0.053000 35.457405 24.353767 29.610691
370 0 2 0.248100 35.213242 24.627003 29.499096
371 0 3 0.053000 34.902569 24.573584 29.259529
372 0 3 0.053000 34.217026 24.313877 29.475456
373 0 3 0.053000 35.506298 24.297642 29.048485
374 0 2 0.248100 36.474560 25.779419 30.387556
375 0 3 0.053000 37.235283 26.395123 30.891384
376 0 3 0.053000 35.543686 25.671011 30.413927
377 0 3 0.053000 36.802788 25.648384 29.969416
378 0 4 -1.000000 38.885288 26.712034 31.356159
379 0 1 -0.628400 22.962828 29.785908 30.260647
380 0 2 0.248100 24.041231 30.526964 31.023951
381 0 3 0.053000 24.403549 30.584263 31.251808
382 0 3 0.053000 23.703709 30.832729 31.467728
383 0 3 0.053000 25.034122 30.865236 31.071693
384 0 2 0.248100 22.791185 29.382677 30.139809
385 0 3 0.053000 22.357918 29.473583 30.525150
386 0 3 0.053000 23.739531 29.523830 30.164234
387 0 3 0.053000 22.120882 28.768158 29.610691
388 0 2 0.248100 21.876719 29.041395 29.499096
389 0 3 0.053000 21.566046 28.987976 29.259529
390 0 3 0.053000 20.880505 28.728270 29.475456
391 0 3 0.053000 22.169777 28.712034 29.048485
392 0 2 0.248100 23.138039 30.193810 30.387556
393 0 3 0.053000 23.898762 30.809513 30.891384
394 0 3 0.053000 22.207161 30.085403 30.413927
395 0 3 0.053000 23.466265 30.062775 29.969416
396 0 4 -1.000000 25.548765 31.126427 31.356159
397 0 1 -0.628400 29.631088 29.785908 30.260647
398 0 2 0.248100 30.709492 30.526964 31.023951
399 0 3 0.053000 31.071810 30.584263 31.251808
400 0 3 0.053000 30.371971 30.832729 31.467728
401 0 3 0.053000 31.702383 30.865236 31.071693
402 0 2 0.248100 29.459446 29.382677 30.139809
403 0 3 0.053000 29.026180 29.473583 30.525150
404 0 3 0.053000 30.407791 29.523830 30.164234
405 0 3 0.053000 28.789143 28.768158 29.610691
406 0 2 0.248100 28.544979 29.041395 29.499096
407 0 3 0.053000 28.234308 28.987976 29.259529
408 0 3 0.053000 27.548765 28.728270 29.475456
409 0 3 0.053000 28.838037 28.712034 29.048485
410 0 2 0.248100 29.806299 30.193810 30.387556
411 0 3 0.053000 30.567022 30.809513 30.891384
412 0 3 0.053000 28.875423 30.085403 30.413927
413 0 3 0.053000 30.134525 30.062775 29.969416
414 0 4 -1.000000 32.217026 31.126427 31.356159
415 0 1 -0.628400 36.299347 29.785908 30.260647
416 0 2 0.248100 37.377754 30.526964 31.023951
417 0 3 0.053000 37.740070 30.584263 31.251808
418 0 3 0.053000 37.040230 30.832729 31.467728
419 0 3 0.053000 38.370644 30.865236 31.071693
420 0 2 0.248100 36.127708 29.382677 30.139809
421 0 3 0.053000 35.694443 29.473583 30.525150
422 0 3 0.053000 37.076050 29.523830 30.164234
423 0 3 0.053000 35.457405 28.768158 29.610691
424 0 2 0.248100 35.213242 29.041395 29.499096
425 0 3 0.053000 34.902569 28.987976 29.259529
426 0 3 0.053000 34.217026 28.728270 29.475456
427 0 3 0.053000 35.506298 28.712034 29.048485
428 0 2 0.248100 36.474560 30.193810 30.387556
429 0 3 0.053000 37.235283 30.809513 30.891384
430 0 3 0.053000 35.543686 30.085403 30.413927
431 0 3 0.053000 36.802788 30.062775 29.969416
432 0 4 -1.000000 38.885288 31.126427 31.356159
433 0 1 -0.628400 22.962828 34.200302 30.260647
434 0 2 0.248100 24.041231 34.941357 31.023951
435 0 3 0.053000 24.403549 34.998657 31.251808
436 0 3 0.053000 23.703709 35.247124 31.467728
437 0 3 0.053000 25.034122 35.279629 31.071693
438 0 2 0.248100 22.791185 33.797070 30.139809
439 0 3 0.053000 22.357918 33.887978 30.525150
440 0 3 0.053000 23.739531 33.938225 30.164234
441 0 3 0.053000 22.120882 33.182549 29.610691
442 0 2 0.248100 21.876719 33.455788 29.499096
443 0 3 0.053000 21.566046 33.402367 29.259529
444 0 3 0.053000 20.880505 33.142662 29.475456
445 0 3 0.053000 22.169777 33.126427 29.048485
446 0 2 0.248100 23.138039 34.608200 30.387556
447 0 3 0.053000 23.898762 35.223907 30.891384
448 0 3 0.053000 22.207161 34.499794 30.413927
449 0 3 0.053000 23.466265 34.477165 29.969416
450 0 4 -1.000000 25.548765 35.540817 31.356159
451 1 5 1.0 0.000000 0.000000 0.000000
452 1 5 1.0 2.035000 2.035000 0.000000
453 1 5 1.0 2.035000 0.000000 2.035000
454 1 5 1.0 0.000000 2.035000 2.035000
455 1 5 1.0 4.070000 0.000000 0.000000
456 1 5 1.0 6.105000 2.035000 0.000000
457 1 5 1.0 6.105000 0.000000 2.035000
458 1 5 1.0 4.070000 2.035000 2.035000
459 1 5 1.0 8.140000 0.000000 0.000000
460 1 5 1.0 10.175000 2.035000 0.000000
461 1 5 1.0 10.175000 0.000000 2.035000
462 1 5 1.0 8.140000 2.035000 2.035000
463 1 5 1.0 12.210000 0.000000 0.000000
464 1 5 1.0 14.245000 2.035000 0.000000
465 1 5 1.0 14.245000 0.000000 2.035000
466 1 5 1.0 12.210000 2.035000 2.035000
467 1 5 1.0 16.280001 0.000000 0.000000
468 1 5 1.0 18.315001 2.035000 0.000000
469 1 5 1.0 18.315001 0.000000 2.035000
470 1 5 1.0 16.280001 2.035000 2.035000
471 1 5 1.0 20.350000 0.000000 0.000000
472 1 5 1.0 22.385000 2.035000 0.000000
473 1 5 1.0 22.385000 0.000000 2.035000
474 1 5 1.0 20.350000 2.035000 2.035000
475 1 5 1.0 24.420000 0.000000 0.000000
476 1 5 1.0 26.455000 2.035000 0.000000
477 1 5 1.0 26.455000 0.000000 2.035000
478 1 5 1.0 24.420000 2.035000 2.035000
479 1 5 1.0 28.490000 0.000000 0.000000
480 1 5 1.0 30.525000 2.035000 0.000000
481 1 5 1.0 30.525000 0.000000 2.035000
482 1 5 1.0 28.490000 2.035000 2.035000
483 1 5 1.0 32.560001 0.000000 0.000000
484 1 5 1.0 34.595001 2.035000 0.000000
485 1 5 1.0 34.595001 0.000000 2.035000
486 1 5 1.0 32.560001 2.035000 2.035000
487 1 5 1.0 36.630001 0.000000 0.000000
488 1 5 1.0 38.665001 2.035000 0.000000
489 1 5 1.0 38.665001 0.000000 2.035000
490 1 5 1.0 36.630001 2.035000 2.035000
491 1 5 1.0 40.700001 0.000000 0.000000
492 1 5 1.0 42.735001 2.035000 0.000000
493 1 5 1.0 42.735001 0.000000 2.035000
494 1 5 1.0 40.700001 2.035000 2.035000
495 1 5 1.0 44.770000 0.000000 0.000000
496 1 5 1.0 46.805000 2.035000 0.000000
497 1 5 1.0 46.805000 0.000000 2.035000
498 1 5 1.0 44.770000 2.035000 2.035000
499 1 5 1.0 48.840000 0.000000 0.000000
500 1 5 1.0 50.875000 2.035000 0.000000
501 1 5 1.0 50.875000 0.000000 2.035000
502 1 5 1.0 48.840000 2.035000 2.035000
503 1 5 1.0 52.910000 0.000000 0.000000
504 1 5 1.0 54.945000 2.035000 0.000000
505 1 5 1.0 54.945000 0.000000 2.035000
506 1 5 1.0 52.910000 2.035000 2.035000
507 1 5 1.0 56.980000 0.000000 0.000000
508 1 5 1.0 59.014999 2.035000 0.000000
509 1 5 1.0 59.014999 0.000000 2.035000
510 1 5 1.0 56.980000 2.035000 2.035000
511 1 5 1.0 0.000000 4.070000 0.000000
512 1 5 1.0 2.035000 6.105000 0.000000
513 1 5 1.0 2.035000 4.070000 2.035000
514 1 5 1.0 0.000000 6.105000 2.035000
515 1 5 1.0 4.070000 4.070000 0.000000
516 1 5 1.0 6.105000 6.105000 0.000000
517 1 5 1.0 6.105000 4.070000 2.035000
518 1 5 1.0 4.070000 6.105000 2.035000
519 1 5 1.0 8.140000 4.070000 0.000000
520 1 5 1.0 10.175000 6.105000 0.000000
521 1 5 1.0 10.175000 4.070000 2.035000
522 1 5 1.0 8.140000 6.105000 2.035000
523 1 5 1.0 12.210000 4.070000 0.000000
524 1 5 1.0 14.245000 6.105000 0.000000
525 1 5 1.0 14.245000 4.070000 2.035000
526 1 5 1.0 12.210000 6.105000 2.035000
527 1 5 1.0 16.280001 4.070000 0.000000
528 1 5 1.0 18.315001 6.105000 0.000000
529 1 5 1.0 18.315001 4.070000 2.035000
530 1 5 1.0 16.280001 6.105000 2.035000
531 1 5 1.0 20.350000 4.070000 0.000000
532 1 5 1.0 22.385000 6.105000 0.000000
533 1 5 1.0 22.385000 4.070000 2.035000
534 1 5 1.0 20.350000 6.105000 2.035000
535 1 5 1.0 24.420000 4.070000 0.000000
536 1 5 1.0 26.455000 6.105000 0.000000
537 1 5 1.0 26.455000 4.070000 2.035000
538 1 5 1.0 24.420000 6.105000 2.035000
539 1 5 1.0 28.490000 4.070000 0.000000
540 1 5 1.0 30.525000 6.105000 0.000000
541 1 5 1.0 30.525000 4.070000 2.035000
542 1 5 1.0 28.490000 6.105000 2.035000
543 1 5 1.0 32.560001 4.070000 0.000000
544 1 5 1.0 34.595001 6.105000 0.000000
545 1 5 1.0 34.595001 4.070000 2.035000
546 1 5 1.0 32.560001 6.105000 2.035000
547 1 5 1.0 36.630001 4.070000 0.000000
548 1 5 1.0 38.665001 6.105000 0.000000
549 1 5 1.0 38.665001 4.070000 2.035000
550 1 5 1.0 36.630001 6.105000 2.035000
551 1 5 1.0 40.700001 4.070000 0.000000
552 1 5 1.0 42.735001 6.105000 0.000000
553 1 5 1.0 42.735001 4.070000 2.035000
554 1 5 1.0 40.700001 6.105000 2.035000
555 1 5 1.0 44.770000 4.070000 0.000000
556 1 5 1.0 46.805000 6.105000 0.000000
557 1 5 1.0 46.805000 4.070000 2.035000
558 1 5 1.0 44.770000 6.105000 2.035000
559 1 5 1.0 48.840000 4.070000 0.000000
560 1 5 1.0 50.875000 6.105000 0.000000
561 1 5 1.0 50.875000 4.070000 2.035000
562 1 5 1.0 48.840000 6.105000 2.035000
563 1 5 1.0 52.910000 4.070000 0.000000
564 1 5 1.0 54.945000 6.105000 0.000000
565 1 5 1.0 54.945000 4.070000 2.035000
566 1 5 1.0 52.910000 6.105000 2.035000
567 1 5 1.0 56.980000 4.070000 0.000000
568 1 5 1.0 59.014999 6.105000 0.000000
569 1 5 1.0 59.014999 4.070000 2.035000
570 1 5 1.0 56.980000 6.105000 2.035000
571 1 5 1.0 0.000000 8.140000 0.000000
572 1 5 1.0 2.035000 10.175000 0.000000
573 1 5 1.0 2.035000 8.140000 2.035000
574 1 5 1.0 0.000000 10.175000 2.035000
575 1 5 1.0 4.070000 8.140000 0.000000
576 1 5 1.0 6.105000 10.175000 0.000000
577 1 5 1.0 6.105000 8.140000 2.035000
578 1 5 1.0 4.070000 10.175000 2.035000
579 1 5 1.0 8.140000 8.140000 0.000000
580 1 5 1.0 10.175000 10.175000 0.000000
581 1 5 1.0 10.175000 8.140000 2.035000
582 1 5 1.0 8.140000 10.175000 2.035000
583 1 5 1.0 12.210000 8.140000 0.000000
584 1 5 1.0 14.245000 10.175000 0.000000
585 1 5 1.0 14.245000 8.140000 2.035000
586 1 5 1.0 12.210000 10.175000 2.035000
587 1 5 1.0 16.280001 8.140000 0.000000
588 1 5 1.0 18.315001 10.175000 0.000000
589 1 5 1.0 18.315001 8.140000 2.035000
590 1 5 1.0 16.280001 10.175000 2.035000
591 1 5 1.0 20.350000 8.140000 0.000000
592 1 5 1.0 22.385000 10.175000 0.000000
593 1 5 1.0 22.385000 8.140000 2.035000
594 1 5 1.0 20.350000 10.175000 2.035000
595 1 5 1.0 24.420000 8.140000 0.000000
596 1 5 1.0 26.455000 10.175000 0.000000
597 1 5 1.0 26.455000 8.140000 2.035000
598 1 5 1.0 24.420000 10.175000 2.035000
599 1 5 1.0 28.490000 8.140000 0.000000
600 1 5 1.0 30.525000 10.175000 0.000000
601 1 5 1.0 30.525000 8.140000 2.035000
602 1 5 1.0 28.490000 10.175000 2.035000
603 1 5 1.0 32.560001 8.140000 0.000000
604 1 5 1.0 34.595001 10.175000 0.000000
605 1 5 1.0 34.595001 8.140000 2.035000
606 1 5 1.0 32.560001 10.175000 2.035000
607 1 5 1.0 36.630001 8.140000 0.000000
608 1 5 1.0 38.665001 10.175000 0.000000
609 1 5 1.0 38.665001 8.140000 2.035000
610 1 5 1.0 36.630001 10.175000 2.035000
611 1 5 1.0 40.700001 8.140000 0.000000
612 1 5 1.0 42.735001 10.175000 0.000000
613 1 5 1.0 42.735001 8.140000 2.035000
614 1 5 1.0 40.700001 10.175000 2.035000
615 1 5 1.0 44.770000 8.140000 0.000000
616 1 5 1.0 46.805000 10.175000 0.000000
617 1 5 1.0 46.805000 8.140000 2.035000
618 1 5 1.0 44.770000 10.175000 2.035000
619 1 5 1.0 48.840000 8.140000 0.000000
620 1 5 1.0 50.875000 10.175000 0.000000
621 1 5 1.0 50.875000 8.140000 2.035000
622 1 5 1.0 48.840000 10.175000 2.035000
623 1 5 1.0 52.910000 8.140000 0.000000
624 1 5 1.0 54.945000 10.175000 0.000000
625 1 5 1.0 54.945000 8.140000 2.035000
626 1 5 1.0 52.910000 10.175000 2.035000
627 1 5 1.0 56.980000 8.140000 0.000000
628 1 5 1.0 59.014999 10.175000 0.000000
629 1 5 1.0 59.014999 8.140000 2.035000
630 1 5 1.0 56.980000 10.175000 2.035000
631 1 5 1.0 0.000000 12.210000 0.000000
632 1 5 1.0 2.035000 14.245000 0.000000
633 1 5 1.0 2.035000 12.210000 2.035000
634 1 5 1.0 0.000000 14.245000 2.035000
635 1 5 1.0 4.070000 12.210000 0.000000
636 1 5 1.0 6.105000 14.245000 0.000000
637 1 5 1.0 6.105000 12.210000 2.035000
638 1 5 1.0 4.070000 14.245000 2.035000
639 1 5 1.0 8.140000 12.210000 0.000000
640 1 5 1.0 10.175000 14.245000 0.000000
641 1 5 1.0 10.175000 12.210000 2.035000
642 1 5 1.0 8.140000 14.245000 2.035000
643 1 5 1.0 12.210000 12.210000 0.000000
644 1 5 1.0 14.245000 14.245000 0.000000
645 1 5 1.0 14.245000 12.210000 2.035000
646 1 5 1.0 12.210000 14.245000 2.035000
647 1 5 1.0 16.280001 12.210000 0.000000
648 1 5 1.0 18.315001 14.245000 0.000000
649 1 5 1.0 18.315001 12.210000 2.035000
650 1 5 1.0 16.280001 14.245000 2.035000
651 1 5 1.0 20.350000 12.210000 0.000000
652 1 5 1.0 22.385000 14.245000 0.000000
653 1 5 1.0 22.385000 12.210000 2.035000
654 1 5 1.0 20.350000 14.245000 2.035000
655 1 5 1.0 24.420000 12.210000 0.000000
656 1 5 1.0 26.455000 14.245000 0.000000
657 1 5 1.0 26.455000 12.210000 2.035000
658 1 5 1.0 24.420000 14.245000 2.035000
659 1 5 1.0 28.490000 12.210000 0.000000
660 1 5 1.0 30.525000 14.245000 0.000000
661 1 5 1.0 30.525000 12.210000 2.035000
662 1 5 1.0 28.490000 14.245000 2.035000