LAMMPS data file containing the original structures and the polarizable gold

10656 atoms
6728 bonds
6000 angles
7200 dihedrals
0 impropers

6 atom types
3 bond types
3 angle types
1 dihedral types

-3.000000 61.985802 xlo xhi
-3.000000 61.997501 ylo yhi
-3.000000 49.614357 zlo zhi

Masses

1 14.006700
2 12.011150
3 1.007970
4 79.908997
5 195.960000
6 1.000000

Atoms

1 0 1 -0.628400 12.693670 18.961731 23.311062
2 0 2 0.248100 13.772074 19.702785 24.074364
3 0 3 0.053000 14.134392 19.760086 24.302221
4 0 3 0.053000 13.434551 20.008553 24.518143
5 0 3 0.053000 14.764964 20.041058 24.122108
6 0 2 0.248100 12.522028 18.558498 23.190224
7 0 3 0.053000 12.088760 18.649405 23.575565
8 0 3 0.053000 13.470373 18.699654 23.214649
9 0 3 0.053000 11.851725 17.943981 22.661106
10 0 2 0.248100 11.607561 18.217216 22.549511
11 0 3 0.053000 11.296889 18.163797 22.309942
12 0 3 0.053000 10.611347 17.904091 22.525869
13 0 3 0.053000 11.900619 17.887856 22.098900
14 0 2 0.248100 12.868880 19.369633 23.437971
15 0 3 0.053000 13.629604 19.985336 23.941799
16 0 3 0.053000 11.938004 19.261225 23.464342
17 0 3 0.053000 13.197107 19.238598 23.019831
18 0 4 -1.000000 15.279608 20.302248 24.406572
19 0 1 -0.628400 19.361931 18.961731 23.311062
20 0 2 0.248100 20.440334 19.702785 24.074364
21 0 3 0.053000 20.802652 19.760086 24.302221
22 0 3 0.053000 20.102814 20.008553 24.518143
23 0 3 0.053000 21.433226 20.041058 24.122108
24 0 2 0.248100 19.190289 18.558498 23.190224
25 0 3 0.053000 18.757023 18.649405 23.575565
26 0 3 0.053000 20.138634 18.699654 23.214649
27 0 3 0.053000 18.519985 17.943981 22.661106
28 0 2 0.248100 18.275822 18.217216 22.549511
29 0 3 0.053000 17.965151 18.163797 22.309942
30 0 3 0.053000 17.279608 17.904091 22.525869
31 0 3 0.053000 18.568880 17.887856 22.098900
32 0 2 0.248100 19.537142 19.369633 23.437971
33 0 3 0.053000 20.297865 19.985336 23.941799
34 0 3 0.053000 18.606266 19.261225 23.464342
35 0 3 0.053000 19.865368 19.238598 23.019831
36 0 4 -1.000000 21.947868 20.302248 24.406572
37 0 1 -0.628400 26.030191 18.961731 23.311062
38 0 2 0.248100 27.108597 19.702785 24.074364
39 0 3 0.053000 27.470913 19.760086 24.302221
40 0 3 0.053000 26.771074 20.008553 24.518143
41 0 3 0.053000 28.101486 20.041058 24.122108
42 0 2 0.248100 25.858551 18.558498 23.190224
43 0 3 0.053000 25.425283 18.649405 23.575565
44 0 3 0.053000 26.806894 18.699654 23.214649
45 0 3 0.053000 25.188248 17.943981 22.661106
46 0 2 0.248100 24.944082 18.217216 22.549511
47 0 3 0.053000 24.633411 18.163797 22.309942
48 0 3 0.053000 23.947868 17.904091 22.525869
49 0 3 0.053000 25.237141 17.887856 22.098900
50 0 2 0.248100 26.205402 19.369633 23.437971
51 0 3 0.053000 26.966125 19.985336 23.941799
52 0 3 0.053000 25.274527 19.261225 23.464342
53 0 3 0.053000 26.533630 19.238598 23.019831
54 0 4 -1.000000 28.616131 20.302248 24.406572
55 0 1 -0.628400 32.698456 18.961731 23.311062
56 0 2 0.248100 33.776855 19.702785 24.074364
57 0 3 0.053000 34.139175 19.760086 24.302221
58 0 3 0.053000 33.439335 20.008553 24.518143
59 0 3 0.053000 34.769749 20.041058 24.122108
60 0 2 0.248100 32.526810 18.558498 23.190224
61 0 3 0.053000 32.093544 18.649405 23.575565
62 0 3 0.053000 33.475159 18.699654 23.214649
63 0 3 0.053000 31.856508 17.943981 22.661106
64 0 2 0.248100 31.612345 18.217216 22.549511
65 0 3 0.053000 31.301672 18.163797 22.309942
66 0 3 0.053000 30.616131 17.904091 22.525869
67 0 3 0.053000 31.905403 17.887856 22.098900
68 0 2 0.248100 32.873665 19.369633 23.437971
69 0 3 0.053000 33.634388 19.985336 23.941799
70 0 3 0.053000 31.942787 19.261225 23.464342
71 0 3 0.053000 33.201889 19.238598 23.019831
72 0 4 -1.000000 35.284393 20.302248 24.406572
73 0 1 -0.628400 39.366714 18.961731 23.311062
74 0 2 0.248100 40.445118 19.702785 24.074364
75 0 3 0.053000 40.807434 19.760086 24.302221
76 0 3 0.053000 40.107597 20.008553 24.518143
77 0 3 0.053000 41.438007 20.041058 24.122108
78 0 2 0.248100 39.195072 18.558498 23.190224
79 0 3 0.053000 38.761803 18.649405 23.575565
80 0 3 0.053000 40.143417 18.699654 23.214649
81 0 3 0.053000 38.524769 17.943981 22.661106
82 0 2 0.248100 38.280605 18.217216 22.549511
83 0 3 0.053000 37.969933 18.163797 22.309942
84 0 3 0.053000 37.284393 17.904091 22.525869
85 0 3 0.053000 38.573662 17.887856 22.098900
86 0 2 0.248100 39.541924 19.369633 23.437971
87 0 3 0.053000 40.302650 19.985336 23.941799
88 0 3 0.053000 38.611046 19.261225 23.464342
89 0 3 0.053000 39.870152 19.238598 23.019831
90 0 4 -1.000000 41.952652 20.302248 24.406572
91 0 1 -0.628400 46.034973 18.961731 23.311062
92 0 2 0.248100 47.113380 19.702785 24.074364
93 0 3 0.053000 47.475697 19.760086 24.302221
94 0 3 0.053000 46.775856 20.008553 24.518143
95 0 3 0.053000 48.106270 20.041058 24.122108
96 0 2 0.248100 45.863331 18.558498 23.190224
97 0 3 0.053000 45.430065 18.649405 23.575565
98 0 3 0.053000 46.811676 18.699654 23.214649
99 0 3 0.053000 45.193031 17.943981 22.661106
100 0 2 0.248100 44.948864 18.217216 22.549511
101 0 3 0.053000 44.638195 18.163797 22.309942
102 0 3 0.053000 43.952652 17.904091 22.525869
103 0 3 0.053000 45.241924 17.887856 22.098900
104 0 2 0.248100 46.210186 19.369633 23.437971
105 0 3 0.053000 46.970909 19.985336 23.941799
106 0 3 0.053000 45.279308 19.261225 23.464342
107 0 3 0.053000 46.538414 19.238598 23.019831
108 0 4 -1.000000 48.620914 20.302248 24.406572
109 0 1 -0.628400 12.693670 23.376122 23.311062
110 0 2 0.248100 13.772074 24.117178 24.074364
111 0 3 0.053000 14.134392 24.174477 24.302221
112 0 3 0.053000 13.434551 24.422943 24.518143
113 0 3 0.053000 14.764964 24.455450 24.122108
114 0 2 0.248100 12.522028 22.972891 23.190224
115 0 3 0.053000 12.088760 23.063797 23.575565
116 0 3 0.053000 13.470373 23.114044 23.214649
117 0 3 0.053000 11.851725 22.358372 22.661106
118 0 2 0.248100 11.607561 22.631609 22.549511
119 0 3 0.053000 11.296889 22.578190 22.309942
120 0 3 0.053000 10.611347 22.318483 22.525869
121 0 3 0.053000 11.900619 22.302248 22.098900
122 0 2 0.248100 12.868880 23.784023 23.437971
123 0 3 0.053000 13.629604 24.399727 23.941799
124 0 3 0.053000 11.938004 23.675617 23.464342
125 0 3 0.053000 13.197107 23.652988 23.019831
126 0 4 -1.000000 15.279608 24.716640 24.406572
127 0 1 -0.628400 19.361931 23.376122 23.311062
128 0 2 0.248100 20.440334 24.117178 24.074364
129 0 3 0.053000 20.802652 24.174477 24.302221
130 0 3 0.053000 20.102814 24.422943 24.518143
131 0 3 0.053000 21.433226 24.455450 24.122108
132 0 2 0.248100 19.190289 22.972891 23.190224
133 0 3 0.053000 18.757023 23.063797 23.575565
134 0 3 0.053000 20.138634 23.114044 23.214649
135 0 3 0.053000 18.519985 22.358372 22.661106
136 0 2 0.248100 18.275822 22.631609 22.549511
137 0 3 0.053000 17.965151 22.578190 22.309942
138 0 3 0.053000 17.279608 22.318483 22.525869
139 0 3 0.053000 18.568880 22.302248 22.098900
140 0 2 0.248100 19.537142 23.784023 23.437971
141 0 3 0.053000 20.297865 24.399727 23.941799
142 0 3 0.053000 18.606266 23.675617 23.464342
143 0 3 0.053000 19.865368 23.652988 23.019831
144 0 4 -1.000000 21.947868 24.716640 24.406572
145 0 1 -0.628400 26.030191 23.376122 23.311062
146 0 2 0.248100 27.108597 24.117178 24.074364
147 0 3 0.053000 27.470913 24.174477 24.302221
148 0 3 0.053000 26.771074 24.422943 24.518143
149 0 3 0.053000 28.101486 24.455450 24.122108
150 0 2 0.248100 25.858551 22.972891 23.190224
151 0 3 0.053000 25.425283 23.063797 23.575565
152 0 3 0.053000 26.806894 23.114044 23.214649
153 0 3 0.053000 25.188248 22.358372 22.661106
154 0 2 0.248100 24.944082 22.631609 22.549511
155 0 3 0.053000 24.633411 22.578190 22.309942
156 0 3 0.053000 23.947868 22.318483 22.525869
157 0 3 0.053000 25.237141 22.302248 22.098900
158 0 2 0.248100 26.205402 23.784023 23.437971
159 0 3 0.053000 26.966125 24.399727 23.941799
160 0 3 0.053000 25.274527 23.675617 23.464342
161 0 3 0.053000 26.533630 23.652988 23.019831
162 0 4 -1.000000 28.616131 24.716640 24.406572
163 0 1 -0.628400 32.698456 23.376122 23.311062
164 0 2 0.248100 33.776855 24.117178 24.074364
165 0 3 0.053000 34.139175 24.174477 24.302221
166 0 3 0.053000 33.439335 24.422943 24.518143
167 0 3 0.053000 34.769749 24.455450 24.122108
168 0 2 0.248100 32.526810 22.972891 23.190224
169 0 3 0.053000 32.093544 23.063797 23.575565
170 0 3 0.053000 33.475159 23.114044 23.214649
171 0 3 0.053000 31.856508 22.358372 22.661106
172 0 2 0.248100 31.612345 22.631609 22.549511
173 0 3 0.053000 31.301672 22.578190 22.309942
174 0 3 0.053000 30.616131 22.318483 22.525869
175 0 3 0.053000 31.905403 22.302248 22.098900
176 0 2 0.248100 32.873665 23.784023 23.437971
177 0 3 0.053000 33.634388 24.399727 23.941799
178 0 3 0.053000 31.942787 23.675617 23.464342
179 0 3 0.053000 33.201889 23.652988 23.019831
180 0 4 -1.000000 35.284393 24.716640 24.406572
181 0 1 -0.628400 39.366714 23.376122 23.311062
182 0 2 0.248100 40.445118 24.117178 24.074364
183 0 3 0.053000 40.807434 24.174477 24.302221
184 0 3 0.053000 40.107597 24.422943 24.518143
185 0 3 0.053000 41.438007 24.455450 24.122108
186 0 2 0.248100 39.195072 22.972891 23.190224
187 0 3 0.053000 38.761803 23.063797 23.575565
188 0 3 0.053000 40.143417 23.114044 23.214649
189 0 3 0.053000 38.524769 22.358372 22.661106
190 0 2 0.248100 38.280605 22.631609 22.549511
191 0 3 0.053000 37.969933 22.578190 22.309942
192 0 3 0.053000 37.284393 22.318483 22.525869
193 0 3 0.053000 38.573662 22.302248 22.098900
194 0 2 0.248100 39.541924 23.784023 23.437971
195 0 3 0.053000 40.302650 24.399727 23.941799
196 0 3 0.053000 38.611046 23.675617 23.464342
197 0 3 0.053000 39.870152 23.652988 23.019831
198 0 4 -1.000000 41.952652 24.716640 24.406572
199 0 1 -0.628400 46.034973 23.376122 23.311062
200 0 2 0.248100 47.113380 24.117178 24.074364
201 0 3 0.053000 47.475697 24.174477 24.302221
202 0 3 0.053000 46.775856 24.422943 24.518143
203 0 3 0.053000 48.106270 24.455450 24.122108
204 0 2 0.248100 45.863331 22.972891 23.190224
205 0 3 0.053000 45.430065 23.063797 23.575565
206 0 3 0.053000 46.811676 23.114044 23.214649
207 0 3 0.053000 45.193031 22.358372 22.661106
208 0 2 0.248100 44.948864 22.631609 22.549511
209 0 3 0.053000 44.638195 22.578190 22.309942
210 0 3 0.053000 43.952652 22.318483 22.525869
211 0 3 0.053000 45.241924 22.302248 22.098900
212 0 2 0.248100 46.210186 23.784023 23.437971
213 0 3 0.053000 46.970909 24.399727 23.941799
214 0 3 0.053000 45.279308 23.675617 23.464342
215 0 3 0.053000 46.538414 23.652988 23.019831
216 0 4 -1.000000 48.620914 24.716640 24.406572
217 0 1 -0.628400 12.693670 27.790514 23.311062
218 0 2 0.248100 13.772074 28.531570 24.074364
219 0 3 0.053000 14.134392 28.588869 24.302221
220 0 3 0.053000 13.434551 28.837336 24.518143
221 0 3 0.053000 14.764964 28.869843 24.122108
222 0 2 0.248100 12.522028 27.387283 23.190224
223 0 3 0.053000 12.088760 27.478189 23.575565
224 0 3 0.053000 13.470373 27.528439 23.214649
225 0 3 0.053000 11.851725 26.772764 22.661106
226 0 2 0.248100 11.607561 27.046001 22.549511
227 0 3 0.053000 11.296889 26.992580 22.309942
228 0 3 0.053000 10.611347 26.732876 22.525869
229 0 3 0.053000 11.900619 26.716640 22.098900
230 0 2 0.248100 12.868880 28.198416 23.437971
231 0 3 0.053000 13.629604 28.814119 23.941799
232 0 3 0.053000 11.938004 28.090008 23.464342
233 0 3 0.053000 13.197107 28.067381 23.019831
234 0 4 -1.000000 15.279608 29.131031 24.406572
235 0 1 -0.628400 19.361931 27.790514 23.311062
236 0 2 0.248100 20.440334 28.531570 24.074364
237 0 3 0.053000 20.802652 28.588869 24.302221
238 0 3 0.053000 20.102814 28.837336 24.518143
239 0 3 0.053000 21.433226 28.869843 24.122108
240 0 2 0.248100 19.190289 27.387283 23.190224
241 0 3 0.053000 18.757023 27.478189 23.575565
242 0 3 0.053000 20.138634 27.528439 23.214649
243 0 3 0.053000 18.519985 26.772764 22.661106
244 0 2 0.248100 18.275822 27.046001 22.549511
245 0 3 0.053000 17.965151 26.992580 22.309942
246 0 3 0.053000 17.279608 26.732876 22.525869
247 0 3 0.053000 18.568880 26.716640 22.098900
248 0 2 0.248100 19.537142 28.198416 23.437971
249 0 3 0.053000 20.297865 28.814119 23.941799
250 0 3 0.053000 18.606266 28.090008 23.464342
251 0 3 0.053000 19.865368 28.067381 23.019831
252 0 4 -1.000000 21.947868 29.131031 24.406572
253 0 1 -0.628400 26.030191 27.790514 23.311062
254 0 2 0.248100 27.108597 28.531570 24.074364
255 0 3 0.053000 27.470913 28.588869 24.302221
256 0 3 0.053000 26.771074 28.837336 24.518143
257 0 3 0.053000 28.101486 28.869843 24.122108
258 0 2 0.248100 25.858551 27.387283 23.190224
259 0 3 0.053000 25.425283 27.478189 23.575565
260 0 3 0.053000 26.806894 27.528439 23.214649
261 0 3 0.053000 25.188248 26.772764 22.661106
262 0 2 0.248100 24.944082 27.046001 22.549511
263 0 3 0.053000 24.633411 26.992580 22.309942
264 0 3 0.053000 23.947868 26.732876 22.525869
265 0 3 0.053000 25.237141 26.716640 22.098900
266 0 2 0.248100 26.205402 28.198416 23.437971
267 0 3 0.053000 26.966125 28.814119 23.941799
268 0 3 0.053000 25.274527 28.090008 23.464342
269 0 3 0.053000 26.533630 28.067381 23.019831
270 0 4 -1.000000 28.616131 29.131031 24.406572
271 0 1 -0.628400 32.698456 27.790514 23.311062
272 0 2 0.248100 33.776855 28.531570 24.074364
273 0 3 0.053000 34.139175 28.588869 24.302221
274 0 3 0.053000 33.439335 28.837336 24.518143
275 0 3 0.053000 34.769749 28.869843 24.122108
276 0 2 0.248100 32.526810 27.387283 23.190224
277 0 3 0.053000 32.093544 27.478189 23.575565
278 0 3 0.053000 33.475159 27.528439 23.214649
279 0 3 0.053000 31.856508 26.772764 22.661106
280 0 2 0.248100 31.612345 27.046001 22.549511
281 0 3 0.053000 31.301672 26.992580 22.309942
282 0 3 0.053000 30.616131 26.732876 22.525869
283 0 3 0.053000 31.905403 26.716640 22.098900
284 0 2 0.248100 32.873665 28.198416 23.437971
285 0 3 0.053000 33.634388 28.814119 23.941799
286 0 3 0.053000 31.942787 28.090008 23.464342
287 0 3 0.053000 33.201889 28.067381 23.019831
288 0 4 -1.000000 35.284393 29.131031 24.406572
289 0 1 -0.628400 39.366714 27.790514 23.311062
290 0 2 0.248100 40.445118 28.531570 24.074364
291 0 3 0.053000 40.807434 28.588869 24.302221
292 0 3 0.053000 40.107597 28.837336 24.518143
293 0 3 0.053000 41.438007 28.869843 24.122108
294 0 2 0.248100 39.195072 27.387283 23.190224
295 0 3 0.053000 38.761803 27.478189 23.575565
296 0 3 0.053000 40.143417 27.528439 23.214649
297 0 3 0.053000 38.524769 26.772764 22.661106
298 0 2 0.248100 38.280605 27.046001 22.549511
299 0 3 0.053000 37.969933 26.992580 22.309942
300 0 3 0.053000 37.284393 26.732876 22.525869
301 0 3 0.053000 38.573662 26.716640 22.098900
302 0 2 0.248100 39.541924 28.198416 23.437971
303 0 3 0.053000 40.302650 28.814119 23.941799
304 0 3 0.053000 38.611046 28.090008 23.464342
305 0 3 0.053000 39.870152 28.067381 23.019831
306 0 4 -1.000000 41.952652 29.131031 24.406572
307 0 1 -0.628400 46.034973 27.790514 23.311062
308 0 2 0.248100 47.113380 28.531570 24.074364
309 0 3 0.053000 47.475697 28.588869 24.302221
310 0 3 0.053000 46.775856 28.837336 24.518143
311 0 3 0.053000 48.106270 28.869843 24.122108
312 0 2 0.248100 45.863331 27.387283 23.190224
313 0 3 0.053000 45.430065 27.478189 23.575565
314 0 3 0.053000 46.811676 27.528439 23.214649
315 0 3 0.053000 45.193031 26.772764 22.661106
316 0 2 0.248100 44.948864 27.046001 22.549511
317 0 3 0.053000 44.638195 26.992580 22.309942
318 0 3 0.053000 43.952652 26.732876 22.525869
319 0 3 0.053000 45.241924 26.716640 22.098900
320 0 2 0.248100 46.210186 28.198416 23.437971
321 0 3 0.053000 46.970909 28.814119 23.941799
322 0 3 0.053000 45.279308 28.090008 23.464342
323 0 3 0.053000 46.538414 28.067381 23.019831
324 0 4 -1.000000 48.620914 29.131031 24.406572
325 0 1 -0.628400 12.693670 32.204906 23.311062
326 0 2 0.248100 13.772074 32.945961 24.074364
327 0 3 0.053000 14.134392 33.003262 24.302221
328 0 3 0.053000 13.434551 33.251728 24.518143
329 0 3 0.053000 14.764964 33.284233 24.122108
330 0 2 0.248100 12.522028 31.801674 23.190224
331 0 3 0.053000 12.088760 31.892580 23.575565
332 0 3 0.053000 13.470373 31.942829 23.214649
333 0 3 0.053000 11.851725 31.187157 22.661106
334 0 2 0.248100 11.607561 31.460392 22.549511
335 0 3 0.053000 11.296889 31.406973 22.309942
336 0 3 0.053000 10.611347 31.147266 22.525869
337 0 3 0.053000 11.900619 31.131031 22.098900
338 0 2 0.248100 12.868880 32.612808 23.437971
339 0 3 0.053000 13.629604 33.228512 23.941799
340 0 3 0.053000 11.938004 32.504398 23.464342
341 0 3 0.053000 13.197107 32.481773 23.019831
342 0 4 -1.000000 15.279608 33.545425 24.406572
343 0 1 -0.628400 19.361931 32.204906 23.311062
344 0 2 0.248100 20.440334 32.945961 24.074364
345 0 3 0.053000 20.802652 33.003262 24.302221
346 0 3 0.053000 20.102814 33.251728 24.518143
347 0 3 0.053000 21.433226 33.284233 24.122108
348 0 2 0.248100 19.190289 31.801674 23.190224
349 0 3 0.053000 18.757023 31.892580 23.575565
350 0 3 0.053000 20.138634 31.942829 23.214649
351 0 3 0.053000 18.519985 31.187157 22.661106
352 0 2 0.248100 18.275822 31.460392 22.549511
353 0 3 0.053000 17.965151 31.406973 22.309942
354 0 3 0.053000 17.279608 31.147266 22.525869
355 0 3 0.053000 18.568880 31.131031 22.098900
356 0 2 0.248100 19.537142 32.612808 23.437971
357 0 3 0.053000 20.297865 33.228512 23.941799
358 0 3 0.053000 18.606266 32.504398 23.464342
359 0 3 0.053000 19.865368 32.481773 23.019831
360 0 4 -1.000000 21.947868 33.545425 24.406572
361 0 1 -0.628400 26.030191 32.204906 23.311062
362 0 2 0.248100 27.108597 32.945961 24.074364
363 0 3 0.053000 27.470913 33.003262 24.302221
364 0 3 0.053000 26.771074 33.251728 24.518143
365 0 3 0.053000 28.101486 33.284233 24.122108
366 0 2 0.248100 25.858551 31.801674 23.190224
367 0 3 0.053000 25.425283 31.892580 23.575565
368 0 3 0.053000 26.806894 31.942829 23.214649
369 0 3 0.053000 25.188248 31.187157 22.661106
370 0 2 0.248100 24.944082 31.460392 22.549511
371 0 3 0.053000 24.633411 31.406973 22.309942
372 0 3 0.053000 23.947868 31.147266 22.525869
373 0 3 0.053000 25.237141 31.131031 22.098900
374 0 2 0.248100 26.205402 32.612808 23.437971
375 0 3 0.053000 26.966125 33.228512 23.941799
376 0 3 0.053000 25.274527 32.504398 23.464342
377 0 3 0.053000 26.533630 32.481773 23.019831
378 0 4 -1.000000 28.616131 33.545425 24.406572
379 0 1 -0.628400 32.698456 32.204906 23.311062
380 0 2 0.248100 33.776855 32.945961 24.074364
381 0 3 0.053000 34.139175 33.003262 24.302221
382 0 3 0.053000 33.439335 33.251728 24.518143
383 0 3 0.053000 34.769749 33.284233 24.122108
384 0 2 0.248100 32.526810 31.801674 23.190224
385 0 3 0.053000 32.093544 31.892580 23.575565
386 0 3 0.053000 33.475159 31.942829 23.214649
387 0 3 0.053000 31.856508 31.187157 22.661106
388 0 2 0.248100 31.612345 31.460392 22.549511
389 0 3 0.053000 31.301672 31.406973 22.309942
390 0 3 0.053000 30.616131 31.147266 22.525869
391 0 3 0.053000 31.905403 31.131031 22.098900
392 0 2 0.248100 32.873665 32.612808 23.437971
393 0 3 0.053000 33.634388 33.228512 23.941799
394 0 3 0.053000 31.942787 32.504398 23.464342
395 0 3 0.053000 33.201889 32.481773 23.019831
396 0 4 -1.000000 35.284393 33.545425 24.406572
397 0 1 -0.628400 39.366714 32.204906 23.311062
398 0 2 0.248100 40.445118 32.945961 24.074364
399 0 3 0.053000 40.807434 33.003262 24.302221
400 0 3 0.053000 40.107597 33.251728 24.518143
401 0 3 0.053000 41.438007 33.284233 24.122108
402 0 2 0.248100 39.195072 31.801674 23.190224
403 0 3 0.053000 38.761803 31.892580 23.575565
404 0 3 0.053000 40.143417 31.942829 23.214649
405 0 3 0.053000 38.524769 31.187157 22.661106
406 0 2 0.248100 38.280605 31.460392 22.549511
407 0 3 0.053000 37.969933 31.406973 22.309942
408 0 3 0.053000 37.284393 31.147266 22.525869
409 0 3 0.053000 38.573662 31.131031 22.098900
410 0 2 0.248100 39.541924 32.612808 23.437971
411 0 3 0.053000 40.302650 33.228512 23.941799
412 0 3 0.053000 38.611046 32.504398 23.464342
413 0 3 0.053000 39.870152 32.481773 23.019831
414 0 4 -1.000000 41.952652 33.545425 24.406572
415 0 1 -0.628400 46.034973 32.204906 23.311062
416 0 2 0.248100 47.113380 32.945961 24.074364
417 0 3 0.053000 47.475697 33.003262 24.302221
418 0 3 0.053000 46.775856 33.251728 24.518143
419 0 3 0.053000 48.106270 33.284233 24.122108
420 0 2 0.248100 45.863331 31.801674 23.190224
421 0 3 0.053000 45.430065 31.892580 23.575565
422 0 3 0.053000 46.811676 31.942829 23.214649
423 0 3 0.053000 45.193031 31.187157 22.661106
424 0 2 0.248100 44.948864 31.460392 22.549511
425 0 3 0.053000 44.638195 31.406973 22.309942
426 0 3 0.053000 43.952652 31.147266 22.525869
427 0 3 0.053000 45.241924 31.131031 22.098900
428 0 2 0.248100 46.210186 32.612808 23.437971
429 0 3 0.053000 46.970909 33.228512 23.941799
430 0 3 0.053000 45.279308 32.504398 23.464342
431 0 3 0.053000 46.538414 32.481773 23.019831
432 0 4 -1.000000 48.620914 33.545425 24.406572
433 0 1 -0.628400 12.693670 36.619301 23.311062
434 0 2 0.248100 13.772074 37.360352 24.074364
435 0 3 0.053000 14.134392 37.417656 24.302221
436 0 3 0.053000 13.434551 37.666122 24.518143
437 0 3 0.053000 14.764964 37.698624 24.122108
438 0 2 0.248100 12.522028 36.216064 23.190224
439 0 3 0.053000 12.088760 36.306973 23.575565
440 0 3 0.053000 13.470373 36.357224 23.214649
441 0 3 0.053000 11.851725 35.601547 22.661106
442 0 2 0.248100 11.607561 35.874786 22.549511
443 0 3 0.053000 11.296889 35.821365 22.309942
444 0 3 0.053000 10.611347 35.561661 22.525869
445 0 3 0.053000 11.900619 35.545425 22.098900
446 0 2 0.248100 12.868880 37.027199 23.437971
447 0 3 0.053000 13.629604 37.642902 23.941799
448 0 3 0.053000 11.938004 36.918793 23.464342
449 0 3 0.053000 13.197107 36.896164 23.019831
450 0 4 -1.000000 15.279608 37.959816 24.406572
451 0 1 -0.628400 19.361931 36.619301 23.311062
452 0 2 0.248100 20.440334 37.360352 24.074364
453 0 3 0.053000 20.802652 37.417656 24.302221
454 0 3 0.053000 20.102814 37.666122 24.518143
455 0 3 0.053000 21.433226 37.698624 24.122108
456 0 2 0.248100 19.190289 36.216064 23.190224
457 0 3 0.053000 18.757023 36.306973 23.575565
458 0 3 0.053000 20.138634 36.357224 23.214649
459 0 3 0.053000 18.519985 35.601547 22.661106
460 0 2 0.248100 18.275822 35.874786 22.549511
461 0 3 0.053000 17.965151 35.821365 22.309942
462 0 3 0.053000 17.279608 35.561661 22.525869
463 0 3 0.053000 18.568880 35.545425 22.098900
464 0 2 0.248100 19.537142 37.027199 23.437971
465 0 3 0.053000 20.297865 37.642902 23.941799
466 0 3 0.053000 18.606266 36.918793 23.464342
467 0 3 0.053000 19.865368 36.896164 23.019831
468 0 4 -1.000000 21.947868 37.959816 24.406572
469 0 1 -0.628400 26.030191 36.619301 23.311062
470 0 2 0.248100 27.108597 37.360352 24.074364
471 0 3 0.053000 27.470913 37.417656 24.302221
472 0 3 0.053000 26.771074 37.666122 24.518143
473 0 3 0.053000 28.101486 37.698624 24.122108
474 0 2 0.248100 25.858551 36.216064 23.190224
475 0 3 0.053000 25.425283 36.306973 23.575565
476 0 3 0.053000 26.806894 36.357224 23.214649
477 0 3 0.053000 25.188248 35.601547 22.661106
478 0 2 0.248100 24.944082 35.874786 22.549511
479 0 3 0.053000 24.633411 35.821365 22.309942
480 0 3 0.053000 23.947868 35.561661 22.525869
481 0 3 0.053000 25.237141 35.545425 22.098900
482 0 2 0.248100 26.205402 37.027199 23.437971
483 0 3 0.053000 26.966125 37.642902 23.941799
484 0 3 0.053000 25.274527 36.918793 23.464342
485 0 3 0.053000 26.533630 36.896164 23.019831
486 0 4 -1.000000 28.616131 37.959816 24.406572
487 0 1 -0.628400 32.698456 36.619301 23.311062
488 0 2 0.248100 33.776855 37.360352 24.074364
489 0 3 0.053000 34.139175 37.417656 24.302221
490 0 3 0.053000 33.439335 37.666122 24.518143
491 0 3 0.053000 34.769749 37.698624 24.122108
492 0 2 0.248100 32.526810 36.216064 23.190224
493 0 3 0.053000 32.093544 36.306973 23.575565
494 0 3 0.053000 33.475159 36.357224 23.214649
495 0 3 0.053000 31.856508 35.601547 22.661106
496 0 2 0.248100 31.612345 35.874786 22.549511
497 0 3 0.053000 31.301672 35.821365 22.309942
498 0 3 0.053000 30.616131 35.561661 22.525869
499 0 3 0.053000 31.905403 35.545425 22.098900
500 0 2 0.248100 32.873665 37.027199 23.437971
501 0 3 0.053000 33.634388 37.642902 23.941799
502 0 3 0.053000 31.942787 36.918793 23.464342
503 0 3 0.053000 33.201889 36.896164 23.019831
504 0 4 -1.000000 35.284393 37.959816 24.406572
505 0 1 -0.628400 39.366714 36.619301 23.311062
506 0 2 0.248100 40.445118 37.360352 24.074364
507 0 3 0.053000 40.807434 37.417656 24.302221
508 0 3 0.053000 40.107597 37.666122 24.518143
509 0 3 0.053000 41.438007 37.698624 24.122108
510 0 2 0.248100 39.195072 36.216064 23.190224
511 0 3 0.053000 38.761803 36.306973 23.575565
512 0 3 0.053000 40.143417 36.357224 23.214649
513 0 3 0.053000 38.524769 35.601547 22.661106
514 0 2 0.248100 38.280605 35.874786 22.549511
515 0 3 0.053000 37.969933 35.821365 22.309942
516 0 3 0.053000 37.284393 35.561661 22.525869
517 0 3 0.053000 38.573662 35.545425 22.098900
518 0 2 0.248100 39.541924 37.027199 23.437971
519 0 3 0.053000 40.302650 37.642902 23.941799
520 0 3 0.053000 38.611046 36.918793 23.464342
521 0 3 0.053000 39.870152 36.896164 23.019831
522 0 4 -1.000000 41.952652 37.959816 24.406572
523 0 1 -0.628400 46.034973 36.619301 23.311062
524 0 2 0.248100 47.113380 37.360352 24.074364
525 0 3 0.053000 47.475697 37.417656 24.302221
526 0 3 0.053000 46.775856 37.666122 24.518143
527 0 3 0.053000 48.106270 37.698624 24.122108
528 0 2 0.248100 45.863331 36.216064 23.190224
529 0 3 0.053000 45.430065 36.306973 23.575565
530 0 3 0.053000 46.811676 36.357224 23.214649
531 0 3 0.053000 45.193031 35.601547 22.661106
532 0 2 0.248100 44.948864 35.874786 22.549511
533 0 3 0.053000 44.638195 35.821365 22.309942
534 0 3 0.053000 43.952652 35.561661 22.525869
535 0 3 0.053000 45.241924 35.545425 22.098900
536 0 2 0.248100 46.210186 37.027199 23.437971
537 0 3 0.053000 46.970909 37.642902 23.941799
538 0 3 0.053000 45.279308 36.918793 23.464342
539 0 3 0.053000 46.538414 36.896164 23.019831
540 0 4 -1.000000 48.620914 37.959816 24.406572
541 0 1 -0.628400 12.693670 41.033691 23.311062
542 0 2 0.248100 13.772074 41.774746 24.074364
543 0 3 0.053000 14.134392 41.832047 24.302221
544 0 3 0.053000 13.434551 42.080513 24.518143
545 0 3 0.053000 14.764964 42.113018 24.122108
546 0 2 0.248100 12.522028 40.630459 23.190224
547 0 3 0.053000 12.088760 40.721367 23.575565
548 0 3 0.053000 13.470373 40.771614 23.214649
549 0 3 0.053000 11.851725 40.015942 22.661106
550 0 2 0.248100 11.607561 40.289177 22.549511
551 0 3 0.053000 11.296889 40.235756 22.309942
552 0 3 0.053000 10.611347 39.976051 22.525869
553 0 3 0.053000 11.900619 39.959816 22.098900
554 0 2 0.248100 12.868880 41.441593 23.437971
555 0 3 0.053000 13.629604 42.057297 23.941799
556 0 3 0.053000 11.938004 41.333183 23.464342
557 0 3 0.053000 13.197107 41.310558 23.019831
558 0 4 -1.000000 15.279608 42.374207 24.406572
559 0 1 -0.628400 19.361931 41.033691 23.311062
560 0 2 0.248100 20.440334 41.774746 24.074364
561 0 3 0.053000 20.802652 41.832047 24.302221
562 0 3 0.053000 20.102814 42.080513 24.518143
563 0 3 0.053000 21.433226 42.113018 24.122108
564 0 2 0.248100 19.190289 40.630459 23.190224
565 0 3 0.053000 18.757023 40.721367 23.575565
566 0 3 0.053000 20.138634 40.771614 23.214649
567 0 3 0.053000 18.519985 40.015942 22.661106
568 0 2 0.248100 18.275822 40.289177 22.549511
569 0 3 0.053000 17.965151 40.235756 22.309942
570 0 3 0.053000 17.279608 39.976051 22.525869
571 0 3 0.053000 18.568880 39.959816 22.098900
572 0 2 0.248100 19.537142 41.441593 23.437971
573 0 3 0.053000 20.297865 42.057297 23.941799
574 0 3 0.053000 18.606266 41.333183 23.464342
575 0 3 0.053000 19.865368 41.310558 23.019831
576 0 4 -1.000000 21.947868 42.374207 24.406572
577 0 1 -0.628400 26.030191 41.033691 23.311062
578 0 2 0.248100 27.108597 41.774746 24.074364
579 0 3 0.053000 27.470913 41.832047 24.302221
580 0 3 0.053000 26.771074 42.080513 24.518143
581 0 3 0.053000 28.101486 42.113018 24.122108
582 0 2 0.248100 25.858551 40.630459 23.190224
583 0 3 0.053000 25.425283 40.721367 23.575565
584 0 3 0.053000 26.806894 40.771614 23.214649
585 0 3 0.053000 25.188248 40.015942 22.661106
586 0 2 0.248100 24.944082 40.289177 22.549511
587 0 3 0.053000 24.633411 40.235756 22.309942
588 0 3 0.053000 23.947868 39.976051 22.525869
589 0 3 0.053000 25.237141 39.959816 22.098900
590 0 2 0.248100 26.205402 41.441593 23.437971
591 0 3 0.053000 26.966125 42.057297 23.941799
592 0 3 0.053000 25.274527 41.333183 23.464342
593 0 3 0.053000 26.533630 41.310558 23.019831
594 0 4 -1.000000 28.616131 42.374207 24.406572
595 0 1 -0.628400 32.698456 41.033691 23.311062
596 0 2 0.248100 33.776855 41.774746 24.074364
597 0 3 0.053000 34.139175 41.832047 24.302221
598 0 3 0.053000 33.439335 42.080513 24.518143
599 0 3 0.053000 34.769749 42.113018 24.122108
600 0 2 0.248100 32.526810 40.630459 23.190224
601 0 3 0.053000 32.093544 40.721367 23.575565
602 0 3 0.053000 33.475159 40.771614 23.214649
603 0 3 0.053000 31.856508 40.015942 22.661106
604 0 2 0.248100 31.612345 40.289177 22.549511
605 0 3 0.053000 31.301672 40.235756 22.309942
606 0 3 0.053000 30.616131 39.976051 22.525869
607 0 3 0.053000 31.905403 39.959816 22.098900
608 0 2 0.248100 32.873665 41.441593 23.437971
609 0 3 0.053000 33.634388 42.057297 23.941799
610 0 3 0.053000 31.942787 41.333183 23.464342
611 0 3 0.053000 33.201889 41.310558 23.019831
612 0 4 -1.000000 35.284393 42.374207 24.406572
613 0 1 -0.628400 39.366714 41.033691 23.311062
614 0 2 0.248100 40.445118 41.774746 24.074364
615 0 3 0.053000 40.807434 41.832047 24.302221
616 0 3 0.053000 40.107597 42.080513 24.518143
617 0 3 0.053000 41.438007 42.113018 24.122108
618 0 2 0.248100 39.195072 40.630459 23.190224
619 0 3 0.053000 38.761803 40.721367 23.575565
620 0 3 0.053000 40.143417 40.771614 23.214649
621 0 3 0.053000 38.524769 40.015942 22.661106
622 0 2 0.248100 38.280605 40.289177 22.549511
623 0 3 0.053000 37.969933 40.235756 22.309942
624 0 3 0.053000 37.284393 39.976051 22.525869
625 0 3 0.053000 38.573662 39.959816 22.098900
626 0 2 0.248100 39.541924 41.441593 23.437971
627 0 3 0.053000 40.302650 42.057297 23.941799
628 0 3 0.053000 38.611046 41.333183 23.464342
629 0 3 0.053000 39.870152 41.310558 23.019831
630 0 4 -1.000000 41.952652 42.374207 24.406572
631 0 1 -0.628400 46.034973 41.033691 23.311062