LAMMPS data file containing the original structures and the polarizable gold

9756 atoms
5928 bonds
4500 angles
5400 dihedrals
0 impropers

6 atom types
3 bond types
3 angle types
1 dihedral types

-3.000000 61.985802 xlo xhi
-3.000000 61.997501 ylo yhi
-3.000000 45.195114 zlo zhi

Masses

1 14.006700
2 12.011150
3 1.007970
4 79.908997
5 195.960000
6 1.000000

Atoms

1 0 1 -0.628400 12.560282 18.829288 23.311062
2 0 2 0.248100 13.638685 19.570343 24.074364
3 0 3 0.053000 14.001003 19.627644 24.302221
4 0 3 0.053000 13.301163 19.876110 24.518143
5 0 3 0.053000 14.631576 19.908615 24.122108
6 0 2 0.248100 12.388639 18.426056 23.190224
7 0 3 0.053000 11.955372 18.516962 23.575565
8 0 3 0.053000 13.336985 18.567211 23.214649
9 0 3 0.053000 11.718336 17.811539 22.661106
10 0 2 0.248100 11.474173 18.084774 22.549511
11 0 3 0.053000 11.163501 18.031355 22.309942
12 0 3 0.053000 10.477959 17.771648 22.525869
13 0 3 0.053000 11.767230 17.755413 22.098900
14 0 2 0.248100 12.735492 19.237190 23.437971
15 0 3 0.053000 13.496216 19.852894 23.941799
16 0 3 0.053000 11.804615 19.128782 23.464342
17 0 3 0.053000 13.063719 19.106155 23.019831
18 0 4 -1.000000 15.146219 20.169806 24.406572
19 0 1 -0.628400 19.228542 18.829288 23.311062
20 0 2 0.248100 20.306946 19.570343 24.074364
21 0 3 0.053000 20.669264 19.627644 24.302221
22 0 3 0.053000 19.969425 19.876110 24.518143
23 0 3 0.053000 21.299837 19.908615 24.122108
24 0 2 0.248100 19.056900 18.426056 23.190224
25 0 3 0.053000 18.623634 18.516962 23.575565
26 0 3 0.053000 20.005245 18.567211 23.214649
27 0 3 0.053000 18.386597 17.811539 22.661106
28 0 2 0.248100 18.142433 18.084774 22.549511
29 0 3 0.053000 17.831762 18.031355 22.309942
30 0 3 0.053000 17.146219 17.771648 22.525869
31 0 3 0.053000 18.435492 17.755413 22.098900
32 0 2 0.248100 19.403753 19.237190 23.437971
33 0 3 0.053000 20.164476 19.852894 23.941799
34 0 3 0.053000 18.472878 19.128782 23.464342
35 0 3 0.053000 19.731979 19.106155 23.019831
36 0 4 -1.000000 21.814480 20.169806 24.406572
37 0 1 -0.628400 25.896803 18.829288 23.311062
38 0 2 0.248100 26.975208 19.570343 24.074364
39 0 3 0.053000 27.337524 19.627644 24.302221
40 0 3 0.053000 26.637686 19.876110 24.518143
41 0 3 0.053000 27.968098 19.908615 24.122108
42 0 2 0.248100 25.725163 18.426056 23.190224
43 0 3 0.053000 25.291895 18.516962 23.575565
44 0 3 0.053000 26.673506 18.567211 23.214649
45 0 3 0.053000 25.054859 17.811539 22.661106
46 0 2 0.248100 24.810694 18.084774 22.549511
47 0 3 0.053000 24.500023 18.031355 22.309942
48 0 3 0.053000 23.814480 17.771648 22.525869
49 0 3 0.053000 25.103752 17.755413 22.098900
50 0 2 0.248100 26.072014 19.237190 23.437971
51 0 3 0.053000 26.832737 19.852894 23.941799
52 0 3 0.053000 25.141138 19.128782 23.464342
53 0 3 0.053000 26.400242 19.106155 23.019831
54 0 4 -1.000000 28.482742 20.169806 24.406572
55 0 1 -0.628400 32.565063 18.829288 23.311062
56 0 2 0.248100 33.643471 19.570343 24.074364
57 0 3 0.053000 34.005787 19.627644 24.302221
58 0 3 0.053000 33.305946 19.876110 24.518143
59 0 3 0.053000 34.636360 19.908615 24.122108
60 0 2 0.248100 32.393425 18.426056 23.190224
61 0 3 0.053000 31.960155 18.516962 23.575565
62 0 3 0.053000 33.341766 18.567211 23.214649
63 0 3 0.053000 31.723120 17.811539 22.661106
64 0 2 0.248100 31.478956 18.084774 22.549511
65 0 3 0.053000 31.168283 18.031355 22.309942
66 0 3 0.053000 30.482742 17.771648 22.525869
67 0 3 0.053000 31.772015 17.755413 22.098900
68 0 2 0.248100 32.740276 19.237190 23.437971
69 0 3 0.053000 33.500999 19.852894 23.941799
70 0 3 0.053000 31.809399 19.128782 23.464342
71 0 3 0.053000 33.068504 19.106155 23.019831
72 0 4 -1.000000 35.151001 20.169806 24.406572
73 0 1 -0.628400 39.233326 18.829288 23.311062
74 0 2 0.248100 40.311729 19.570343 24.074364
75 0 3 0.053000 40.674049 19.627644 24.302221
76 0 3 0.053000 39.974205 19.876110 24.518143
77 0 3 0.053000 41.304619 19.908615 24.122108
78 0 2 0.248100 39.061684 18.426056 23.190224
79 0 3 0.053000 38.628418 18.516962 23.575565
80 0 3 0.053000 40.010029 18.567211 23.214649
81 0 3 0.053000 38.391380 17.811539 22.661106
82 0 2 0.248100 38.147217 18.084774 22.549511
83 0 3 0.053000 37.836544 18.031355 22.309942
84 0 3 0.053000 37.151001 17.771648 22.525869
85 0 3 0.053000 38.440277 17.755413 22.098900
86 0 2 0.248100 39.408535 19.237190 23.437971
87 0 3 0.053000 40.169258 19.852894 23.941799
88 0 3 0.053000 38.477661 19.128782 23.464342
89 0 3 0.053000 39.736763 19.106155 23.019831
90 0 4 -1.000000 41.819263 20.169806 24.406572
91 0 1 -0.628400 45.901585 18.829288 23.311062
92 0 2 0.248100 46.979992 19.570343 24.074364
93 0 3 0.053000 47.342308 19.627644 24.302221
94 0 3 0.053000 46.642467 19.876110 24.518143
95 0 3 0.053000 47.972881 19.908615 24.122108
96 0 2 0.248100 45.729942 18.426056 23.190224
97 0 3 0.053000 45.296677 18.516962 23.575565
98 0 3 0.053000 46.678288 18.567211 23.214649
99 0 3 0.053000 45.059643 17.811539 22.661106
100 0 2 0.248100 44.815475 18.084774 22.549511
101 0 3 0.053000 44.504807 18.031355 22.309942
102 0 3 0.053000 43.819263 17.771648 22.525869
103 0 3 0.053000 45.108536 17.755413 22.098900
104 0 2 0.248100 46.076797 19.237190 23.437971
105 0 3 0.053000 46.837521 19.852894 23.941799
106 0 3 0.053000 45.145920 19.128782 23.464342
107 0 3 0.053000 46.405025 19.106155 23.019831
108 0 4 -1.000000 48.487526 20.169806 24.406572
109 0 1 -0.628400 12.560282 23.243679 23.311062
110 0 2 0.248100 13.638685 23.984735 24.074364
111 0 3 0.053000 14.001003 24.042034 24.302221
112 0 3 0.053000 13.301163 24.290501 24.518143
113 0 3 0.053000 14.631576 24.323008 24.122108
114 0 2 0.248100 12.388639 22.840448 23.190224
115 0 3 0.053000 11.955372 22.931355 23.575565
116 0 3 0.053000 13.336985 22.981602 23.214649
117 0 3 0.053000 11.718336 22.225929 22.661106
118 0 2 0.248100 11.474173 22.499166 22.549511
119 0 3 0.053000 11.163501 22.445747 22.309942
120 0 3 0.053000 10.477959 22.186041 22.525869
121 0 3 0.053000 11.767230 22.169806 22.098900
122 0 2 0.248100 12.735492 23.651581 23.437971
123 0 3 0.053000 13.496216 24.267284 23.941799
124 0 3 0.053000 11.804615 23.543175 23.464342
125 0 3 0.053000 13.063719 23.520546 23.019831
126 0 4 -1.000000 15.146219 24.584198 24.406572
127 0 1 -0.628400 19.228542 23.243679 23.311062
128 0 2 0.248100 20.306946 23.984735 24.074364
129 0 3 0.053000 20.669264 24.042034 24.302221
130 0 3 0.053000 19.969425 24.290501 24.518143
131 0 3 0.053000 21.299837 24.323008 24.122108
132 0 2 0.248100 19.056900 22.840448 23.190224
133 0 3 0.053000 18.623634 22.931355 23.575565
134 0 3 0.053000 20.005245 22.981602 23.214649
135 0 3 0.053000 18.386597 22.225929 22.661106
136 0 2 0.248100 18.142433 22.499166 22.549511
137 0 3 0.053000 17.831762 22.445747 22.309942
138 0 3 0.053000 17.146219 22.186041 22.525869
139 0 3 0.053000 18.435492 22.169806 22.098900
140 0 2 0.248100 19.403753 23.651581 23.437971
141 0 3 0.053000 20.164476 24.267284 23.941799
142 0 3 0.053000 18.472878 23.543175 23.464342
143 0 3 0.053000 19.731979 23.520546 23.019831
144 0 4 -1.000000 21.814480 24.584198 24.406572
145 0 1 -0.628400 25.896803 23.243679 23.311062
146 0 2 0.248100 26.975208 23.984735 24.074364
147 0 3 0.053000 27.337524 24.042034 24.302221
148 0 3 0.053000 26.637686 24.290501 24.518143
149 0 3 0.053000 27.968098 24.323008 24.122108
150 0 2 0.248100 25.725163 22.840448 23.190224
151 0 3 0.053000 25.291895 22.931355 23.575565
152 0 3 0.053000 26.673506 22.981602 23.214649
153 0 3 0.053000 25.054859 22.225929 22.661106
154 0 2 0.248100 24.810694 22.499166 22.549511
155 0 3 0.053000 24.500023 22.445747 22.309942
156 0 3 0.053000 23.814480 22.186041 22.525869
157 0 3 0.053000 25.103752 22.169806 22.098900
158 0 2 0.248100 26.072014 23.651581 23.437971
159 0 3 0.053000 26.832737 24.267284 23.941799
160 0 3 0.053000 25.141138 23.543175 23.464342
161 0 3 0.053000 26.400242 23.520546 23.019831
162 0 4 -1.000000 28.482742 24.584198 24.406572
163 0 1 -0.628400 32.565063 23.243679 23.311062
164 0 2 0.248100 33.643471 23.984735 24.074364
165 0 3 0.053000 34.005787 24.042034 24.302221
166 0 3 0.053000 33.305946 24.290501 24.518143
167 0 3 0.053000 34.636360 24.323008 24.122108
168 0 2 0.248100 32.393425 22.840448 23.190224
169 0 3 0.053000 31.960155 22.931355 23.575565
170 0 3 0.053000 33.341766 22.981602 23.214649
171 0 3 0.053000 31.723120 22.225929 22.661106
172 0 2 0.248100 31.478956 22.499166 22.549511
173 0 3 0.053000 31.168283 22.445747 22.309942
174 0 3 0.053000 30.482742 22.186041 22.525869
175 0 3 0.053000 31.772015 22.169806 22.098900
176 0 2 0.248100 32.740276 23.651581 23.437971
177 0 3 0.053000 33.500999 24.267284 23.941799
178 0 3 0.053000 31.809399 23.543175 23.464342
179 0 3 0.053000 33.068504 23.520546 23.019831
180 0 4 -1.000000 35.151001 24.584198 24.406572
181 0 1 -0.628400 39.233326 23.243679 23.311062
182 0 2 0.248100 40.311729 23.984735 24.074364
183 0 3 0.053000 40.674049 24.042034 24.302221
184 0 3 0.053000 39.974205 24.290501 24.518143
185 0 3 0.053000 41.304619 24.323008 24.122108
186 0 2 0.248100 39.061684 22.840448 23.190224
187 0 3 0.053000 38.628418 22.931355 23.575565
188 0 3 0.053000 40.010029 22.981602 23.214649
189 0 3 0.053000 38.391380 22.225929 22.661106
190 0 2 0.248100 38.147217 22.499166 22.549511
191 0 3 0.053000 37.836544 22.445747 22.309942
192 0 3 0.053000 37.151001 22.186041 22.525869
193 0 3 0.053000 38.440277 22.169806 22.098900
194 0 2 0.248100 39.408535 23.651581 23.437971
195 0 3 0.053000 40.169258 24.267284 23.941799
196 0 3 0.053000 38.477661 23.543175 23.464342
197 0 3 0.053000 39.736763 23.520546 23.019831
198 0 4 -1.000000 41.819263 24.584198 24.406572
199 0 1 -0.628400 45.901585 23.243679 23.311062
200 0 2 0.248100 46.979992 23.984735 24.074364
201 0 3 0.053000 47.342308 24.042034 24.302221
202 0 3 0.053000 46.642467 24.290501 24.518143
203 0 3 0.053000 47.972881 24.323008 24.122108
204 0 2 0.248100 45.729942 22.840448 23.190224
205 0 3 0.053000 45.296677 22.931355 23.575565
206 0 3 0.053000 46.678288 22.981602 23.214649
207 0 3 0.053000 45.059643 22.225929 22.661106
208 0 2 0.248100 44.815475 22.499166 22.549511
209 0 3 0.053000 44.504807 22.445747 22.309942
210 0 3 0.053000 43.819263 22.186041 22.525869
211 0 3 0.053000 45.108536 22.169806 22.098900
212 0 2 0.248100 46.076797 23.651581 23.437971
213 0 3 0.053000 46.837521 24.267284 23.941799
214 0 3 0.053000 45.145920 23.543175 23.464342
215 0 3 0.053000 46.405025 23.520546 23.019831
216 0 4 -1.000000 48.487526 24.584198 24.406572
217 0 1 -0.628400 12.560282 27.658072 23.311062
218 0 2 0.248100 13.638685 28.399128 24.074364
219 0 3 0.053000 14.001003 28.456427 24.302221
220 0 3 0.053000 13.301163 28.704893 24.518143
221 0 3 0.053000 14.631576 28.737400 24.122108
222 0 2 0.248100 12.388639 27.254841 23.190224
223 0 3 0.053000 11.955372 27.345747 23.575565
224 0 3 0.053000 13.336985 27.395996 23.214649
225 0 3 0.053000 11.718336 26.640322 22.661106
226 0 2 0.248100 11.474173 26.913559 22.549511
227 0 3 0.053000 11.163501 26.860138 22.309942
228 0 3 0.053000 10.477959 26.600433 22.525869
229 0 3 0.053000 11.767230 26.584198 22.098900
230 0 2 0.248100 12.735492 28.065973 23.437971
231 0 3 0.053000 13.496216 28.681677 23.941799
232 0 3 0.053000 11.804615 27.957565 23.464342
233 0 3 0.053000 13.063719 27.934938 23.019831
234 0 4 -1.000000 15.146219 28.998589 24.406572
235 0 1 -0.628400 19.228542 27.658072 23.311062
236 0 2 0.248100 20.306946 28.399128 24.074364
237 0 3 0.053000 20.669264 28.456427 24.302221
238 0 3 0.053000 19.969425 28.704893 24.518143
239 0 3 0.053000 21.299837 28.737400 24.122108
240 0 2 0.248100 19.056900 27.254841 23.190224
241 0 3 0.053000 18.623634 27.345747 23.575565
242 0 3 0.053000 20.005245 27.395996 23.214649
243 0 3 0.053000 18.386597 26.640322 22.661106
244 0 2 0.248100 18.142433 26.913559 22.549511
245 0 3 0.053000 17.831762 26.860138 22.309942
246 0 3 0.053000 17.146219 26.600433 22.525869
247 0 3 0.053000 18.435492 26.584198 22.098900
248 0 2 0.248100 19.403753 28.065973 23.437971
249 0 3 0.053000 20.164476 28.681677 23.941799
250 0 3 0.053000 18.472878 27.957565 23.464342
251 0 3 0.053000 19.731979 27.934938 23.019831
252 0 4 -1.000000 21.814480 28.998589 24.406572
253 0 1 -0.628400 25.896803 27.658072 23.311062
254 0 2 0.248100 26.975208 28.399128 24.074364
255 0 3 0.053000 27.337524 28.456427 24.302221
256 0 3 0.053000 26.637686 28.704893 24.518143
257 0 3 0.053000 27.968098 28.737400 24.122108
258 0 2 0.248100 25.725163 27.254841 23.190224
259 0 3 0.053000 25.291895 27.345747 23.575565
260 0 3 0.053000 26.673506 27.395996 23.214649
261 0 3 0.053000 25.054859 26.640322 22.661106
262 0 2 0.248100 24.810694 26.913559 22.549511
263 0 3 0.053000 24.500023 26.860138 22.309942
264 0 3 0.053000 23.814480 26.600433 22.525869
265 0 3 0.053000 25.103752 26.584198 22.098900
266 0 2 0.248100 26.072014 28.065973 23.437971
267 0 3 0.053000 26.832737 28.681677 23.941799
268 0 3 0.053000 25.141138 27.957565 23.464342
269 0 3 0.053000 26.400242 27.934938 23.019831
270 0 4 -1.000000 28.482742 28.998589 24.406572
271 0 1 -0.628400 32.565063 27.658072 23.311062
272 0 2 0.248100 33.643471 28.399128 24.074364
273 0 3 0.053000 34.005787 28.456427 24.302221
274 0 3 0.053000 33.305946 28.704893 24.518143
275 0 3 0.053000 34.636360 28.737400 24.122108
276 0 2 0.248100 32.393425 27.254841 23.190224
277 0 3 0.053000 31.960155 27.345747 23.575565
278 0 3 0.053000 33.341766 27.395996 23.214649
279 0 3 0.053000 31.723120 26.640322 22.661106
280 0 2 0.248100 31.478956 26.913559 22.549511
281 0 3 0.053000 31.168283 26.860138 22.309942
282 0 3 0.053000 30.482742 26.600433 22.525869
283 0 3 0.053000 31.772015 26.584198 22.098900
284 0 2 0.248100 32.740276 28.065973 23.437971
285 0 3 0.053000 33.500999 28.681677 23.941799
286 0 3 0.053000 31.809399 27.957565 23.464342
287 0 3 0.053000 33.068504 27.934938 23.019831
288 0 4 -1.000000 35.151001 28.998589 24.406572
289 0 1 -0.628400 39.233326 27.658072 23.311062
290 0 2 0.248100 40.311729 28.399128 24.074364
291 0 3 0.053000 40.674049 28.456427 24.302221
292 0 3 0.053000 39.974205 28.704893 24.518143
293 0 3 0.053000 41.304619 28.737400 24.122108
294 0 2 0.248100 39.061684 27.254841 23.190224
295 0 3 0.053000 38.628418 27.345747 23.575565
296 0 3 0.053000 40.010029 27.395996 23.214649
297 0 3 0.053000 38.391380 26.640322 22.661106
298 0 2 0.248100 38.147217 26.913559 22.549511
299 0 3 0.053000 37.836544 26.860138 22.309942
300 0 3 0.053000 37.151001 26.600433 22.525869
301 0 3 0.053000 38.440277 26.584198 22.098900
302 0 2 0.248100 39.408535 28.065973 23.437971
303 0 3 0.053000 40.169258 28.681677 23.941799
304 0 3 0.053000 38.477661 27.957565 23.464342
305 0 3 0.053000 39.736763 27.934938 23.019831
306 0 4 -1.000000 41.819263 28.998589 24.406572
307 0 1 -0.628400 45.901585 27.658072 23.311062
308 0 2 0.248100 46.979992 28.399128 24.074364
309 0 3 0.053000 47.342308 28.456427 24.302221
310 0 3 0.053000 46.642467 28.704893 24.518143
311 0 3 0.053000 47.972881 28.737400 24.122108
312 0 2 0.248100 45.729942 27.254841 23.190224
313 0 3 0.053000 45.296677 27.345747 23.575565
314 0 3 0.053000 46.678288 27.395996 23.214649
315 0 3 0.053000 45.059643 26.640322 22.661106
316 0 2 0.248100 44.815475 26.913559 22.549511
317 0 3 0.053000 44.504807 26.860138 22.309942
318 0 3 0.053000 43.819263 26.600433 22.525869
319 0 3 0.053000 45.108536 26.584198 22.098900
320 0 2 0.248100 46.076797 28.065973 23.437971
321 0 3 0.053000 46.837521 28.681677 23.941799
322 0 3 0.053000 45.145920 27.957565 23.464342
323 0 3 0.053000 46.405025 27.934938 23.019831
324 0 4 -1.000000 48.487526 28.998589 24.406572
325 0 1 -0.628400 12.560282 32.072464 23.311062
326 0 2 0.248100 13.638685 32.813519 24.074364
327 0 3 0.053000 14.001003 32.870819 24.302221
328 0 3 0.053000 13.301163 33.119286 24.518143
329 0 3 0.053000 14.631576 33.151791 24.122108
330 0 2 0.248100 12.388639 31.669231 23.190224
331 0 3 0.053000 11.955372 31.760138 23.575565
332 0 3 0.053000 13.336985 31.810387 23.214649
333 0 3 0.053000 11.718336 31.054714 22.661106
334 0 2 0.248100 11.474173 31.327950 22.549511
335 0 3 0.053000 11.163501 31.274530 22.309942
336 0 3 0.053000 10.477959 31.014824 22.525869
337 0 3 0.053000 11.767230 30.998589 22.098900
338 0 2 0.248100 12.735492 32.480366 23.437971
339 0 3 0.053000 13.496216 33.096069 23.941799
340 0 3 0.053000 11.804615 32.371956 23.464342
341 0 3 0.053000 13.063719 32.349331 23.019831
342 0 4 -1.000000 15.146219 33.412979 24.406572
343 0 1 -0.628400 19.228542 32.072464 23.311062
344 0 2 0.248100 20.306946 32.813519 24.074364
345 0 3 0.053000 20.669264 32.870819 24.302221
346 0 3 0.053000 19.969425 33.119286 24.518143
347 0 3 0.053000 21.299837 33.151791 24.122108
348 0 2 0.248100 19.056900 31.669231 23.190224
349 0 3 0.053000 18.623634 31.760138 23.575565
350 0 3 0.053000 20.005245 31.810387 23.214649
351 0 3 0.053000 18.386597 31.054714 22.661106
352 0 2 0.248100 18.142433 31.327950 22.549511
353 0 3 0.053000 17.831762 31.274530 22.309942
354 0 3 0.053000 17.146219 31.014824 22.525869
355 0 3 0.053000 18.435492 30.998589 22.098900
356 0 2 0.248100 19.403753 32.480366 23.437971
357 0 3 0.053000 20.164476 33.096069 23.941799
358 0 3 0.053000 18.472878 32.371956 23.464342
359 0 3 0.053000 19.731979 32.349331 23.019831
360 0 4 -1.000000 21.814480 33.412979 24.406572
361 0 1 -0.628400 25.896803 32.072464 23.311062
362 0 2 0.248100 26.975208 32.813519 24.074364
363 0 3 0.053000 27.337524 32.870819 24.302221
364 0 3 0.053000 26.637686 33.119286 24.518143
365 0 3 0.053000 27.968098 33.151791 24.122108
366 0 2 0.248100 25.725163 31.669231 23.190224
367 0 3 0.053000 25.291895 31.760138 23.575565
368 0 3 0.053000 26.673506 31.810387 23.214649
369 0 3 0.053000 25.054859 31.054714 22.661106
370 0 2 0.248100 24.810694 31.327950 22.549511
371 0 3 0.053000 24.500023 31.274530 22.309942
372 0 3 0.053000 23.814480 31.014824 22.525869
373 0 3 0.053000 25.103752 30.998589 22.098900
374 0 2 0.248100 26.072014 32.480366 23.437971
375 0 3 0.053000 26.832737 33.096069 23.941799
376 0 3 0.053000 25.141138 32.371956 23.464342
377 0 3 0.053000 26.400242 32.349331 23.019831
378 0 4 -1.000000 28.482742 33.412979 24.406572
379 0 1 -0.628400 32.565063 32.072464 23.311062
380 0 2 0.248100 33.643471 32.813519 24.074364
381 0 3 0.053000 34.005787 32.870819 24.302221
382 0 3 0.053000 33.305946 33.119286 24.518143
383 0 3 0.053000 34.636360 33.151791 24.122108
384 0 2 0.248100 32.393425 31.669231 23.190224
385 0 3 0.053000 31.960155 31.760138 23.575565
386 0 3 0.053000 33.341766 31.810387 23.214649
387 0 3 0.053000 31.723120 31.054714 22.661106
388 0 2 0.248100 31.478956 31.327950 22.549511
389 0 3 0.053000 31.168283 31.274530 22.309942
390 0 3 0.053000 30.482742 31.014824 22.525869
391 0 3 0.053000 31.772015 30.998589 22.098900
392 0 2 0.248100 32.740276 32.480366 23.437971
393 0 3 0.053000 33.500999 33.096069 23.941799
394 0 3 0.053000 31.809399 32.371956 23.464342
395 0 3 0.053000 33.068504 32.349331 23.019831
396 0 4 -1.000000 35.151001 33.412979 24.406572
397 0 1 -0.628400 39.233326 32.072464 23.311062
398 0 2 0.248100 40.311729 32.813519 24.074364
399 0 3 0.053000 40.674049 32.870819 24.302221
400 0 3 0.053000 39.974205 33.119286 24.518143
401 0 3 0.053000 41.304619 33.151791 24.122108
402 0 2 0.248100 39.061684 31.669231 23.190224
403 0 3 0.053000 38.628418 31.760138 23.575565
404 0 3 0.053000 40.010029 31.810387 23.214649
405 0 3 0.053000 38.391380 31.054714 22.661106
406 0 2 0.248100 38.147217 31.327950 22.549511
407 0 3 0.053000 37.836544 31.274530 22.309942
408 0 3 0.053000 37.151001 31.014824 22.525869
409 0 3 0.053000 38.440277 30.998589 22.098900
410 0 2 0.248100 39.408535 32.480366 23.437971
411 0 3 0.053000 40.169258 33.096069 23.941799
412 0 3 0.053000 38.477661 32.371956 23.464342
413 0 3 0.053000 39.736763 32.349331 23.019831
414 0 4 -1.000000 41.819263 33.412979 24.406572
415 0 1 -0.628400 45.901585 32.072464 23.311062
416 0 2 0.248100 46.979992 32.813519 24.074364
417 0 3 0.053000 47.342308 32.870819 24.302221
418 0 3 0.053000 46.642467 33.119286 24.518143
419 0 3 0.053000 47.972881 33.151791 24.122108
420 0 2 0.248100 45.729942 31.669231 23.190224
421 0 3 0.053000 45.296677 31.760138 23.575565
422 0 3 0.053000 46.678288 31.810387 23.214649
423 0 3 0.053000 45.059643 31.054714 22.661106
424 0 2 0.248100 44.815475 31.327950 22.549511
425 0 3 0.053000 44.504807 31.274530 22.309942
426 0 3 0.053000 43.819263 31.014824 22.525869
427 0 3 0.053000 45.108536 30.998589 22.098900
428 0 2 0.248100 46.076797 32.480366 23.437971
429 0 3 0.053000 46.837521 33.096069 23.941799
430 0 3 0.053000 45.145920 32.371956 23.464342
431 0 3 0.053000 46.405025 32.349331 23.019831
432 0 4 -1.000000 48.487526 33.412979 24.406572
433 0 1 -0.628400 12.560282 36.486855 23.311062
434 0 2 0.248100 13.638685 37.227913 24.074364
435 0 3 0.053000 14.001003 37.285210 24.302221
436 0 3 0.053000 13.301163 37.533676 24.518143
437 0 3 0.053000 14.631576 37.566185 24.122108
438 0 2 0.248100 12.388639 36.083626 23.190224
439 0 3 0.053000 11.955372 36.174530 23.575565
440 0 3 0.053000 13.336985 36.224777 23.214649
441 0 3 0.053000 11.718336 35.469109 22.661106
442 0 2 0.248100 11.474173 35.742340 22.549511
443 0 3 0.053000 11.163501 35.688923 22.309942
444 0 3 0.053000 10.477959 35.429214 22.525869
445 0 3 0.053000 11.767230 35.412979 22.098900
446 0 2 0.248100 12.735492 36.894760 23.437971
447 0 3 0.053000 13.496216 37.510460 23.941799
448 0 3 0.053000 11.804615 36.786350 23.464342
449 0 3 0.053000 13.063719 36.763725 23.019831
450 0 4 -1.000000 15.146219 37.827374 24.406572
451 0 1 -0.628400 19.228542 36.486855 23.311062
452 0 2 0.248100 20.306946 37.227913 24.074364
453 0 3 0.053000 20.669264 37.285210 24.302221
454 0 3 0.053000 19.969425 37.533676 24.518143
455 0 3 0.053000 21.299837 37.566185 24.122108
456 0 2 0.248100 19.056900 36.083626 23.190224
457 0 3 0.053000 18.623634 36.174530 23.575565
458 0 3 0.053000 20.005245 36.224777 23.214649
459 0 3 0.053000 18.386597 35.469109 22.661106
460 0 2 0.248100 18.142433 35.742340 22.549511
461 0 3 0.053000 17.831762 35.688923 22.309942
462 0 3 0.053000 17.146219 35.429214 22.525869
463 0 3 0.053000 18.435492 35.412979 22.098900
464 0 2 0.248100 19.403753 36.894760 23.437971
465 0 3 0.053000 20.164476 37.510460 23.941799
466 0 3 0.053000 18.472878 36.786350 23.464342
467 0 3 0.053000 19.731979 36.763725 23.019831
468 0 4 -1.000000 21.814480 37.827374 24.406572
469 0 1 -0.628400 25.896803 36.486855 23.311062
470 0 2 0.248100 26.975208 37.227913 24.074364
471 0 3 0.053000 27.337524 37.285210 24.302221
472 0 3 0.053000 26.637686 37.533676 24.518143
473 0 3 0.053000 27.968098 37.566185 24.122108
474 0 2 0.248100 25.725163 36.083626 23.190224
475 0 3 0.053000 25.291895 36.174530 23.575565
476 0 3 0.053000 26.673506 36.224777 23.214649
477 0 3 0.053000 25.054859 35.469109 22.661106
478 0 2 0.248100 24.810694 35.742340 22.549511
479 0 3 0.053000 24.500023 35.688923 22.309942
480 0 3 0.053000 23.814480 35.429214 22.525869
481 0 3 0.053000 25.103752 35.412979 22.098900
482 0 2 0.248100 26.072014 36.894760 23.437971
483 0 3 0.053000 26.832737 37.510460 23.941799
484 0 3 0.053000 25.141138 36.786350 23.464342
485 0 3 0.053000 26.400242 36.763725 23.019831
486 0 4 -1.000000 28.482742 37.827374 24.406572
487 0 1 -0.628400 32.565063 36.486855 23.311062
488 0 2 0.248100 33.643471 37.227913 24.074364
489 0 3 0.053000 34.005787 37.285210 24.302221
490 0 3 0.053000 33.305946 37.533676 24.518143
491 0 3 0.053000 34.636360 37.566185 24.122108
492 0 2 0.248100 32.393425 36.083626 23.190224
493 0 3 0.053000 31.960155 36.174530 23.575565
494 0 3 0.053000 33.341766 36.224777 23.214649
495 0 3 0.053000 31.723120 35.469109 22.661106
496 0 2 0.248100 31.478956 35.742340 22.549511
497 0 3 0.053000 31.168283 35.688923 22.309942
498 0 3 0.053000 30.482742 35.429214 22.525869
499 0 3 0.053000 31.772015 35.412979 22.098900
500 0 2 0.248100 32.740276 36.894760 23.437971
501 0 3 0.053000 33.500999 37.510460 23.941799
502 0 3 0.053000 31.809399 36.786350 23.464342
503 0 3 0.053000 33.068504 36.763725 23.019831
504 0 4 -1.000000 35.151001 37.827374 24.406572
505 0 1 -0.628400 39.233326 36.486855 23.311062
506 0 2 0.248100 40.311729 37.227913 24.074364
507 0 3 0.053000 40.674049 37.285210 24.302221
508 0 3 0.053000 39.974205 37.533676 24.518143
509 0 3 0.053000 41.304619 37.566185 24.122108
510 0 2 0.248100 39.061684 36.083626 23.190224
511 0 3 0.053000 38.628418 36.174530 23.575565
512 0 3 0.053000 40.010029 36.224777 23.214649
513 0 3 0.053000 38.391380 35.469109 22.661106
514 0 2 0.248100 38.147217 35.742340 22.549511
515 0 3 0.053000 37.836544 35.688923 22.309942
516 0 3 0.053000 37.151001 35.429214 22.525869
517 0 3 0.053000 38.440277 35.412979 22.098900
518 0 2 0.248100 39.408535 36.894760 23.437971
519 0 3 0.053000 40.169258 37.510460 23.941799
520 0 3 0.053000 38.477661 36.786350 23.464342
521 0 3 0.053000 39.736763 36.763725 23.019831
522 0 4 -1.000000 41.819263 37.827374 24.406572
523 0 1 -0.628400 45.901585 36.486855 23.311062
524 0 2 0.248100 46.979992 37.227913 24.074364
525 0 3 0.053000 47.342308 37.285210 24.302221
526 0 3 0.053000 46.642467 37.533676 24.518143
527 0 3 0.053000 47.972881 37.566185 24.122108
528 0 2 0.248100 45.729942 36.083626 23.190224
529 0 3 0.053000 45.296677 36.174530 23.575565
530 0 3 0.053000 46.678288 36.224777 23.214649
531 0 3 0.053000 45.059643 35.469109 22.661106
532 0 2 0.248100 44.815475 35.742340 22.549511
533 0 3 0.053000 44.504807 35.688923 22.309942
534 0 3 0.053000 43.819263 35.429214 22.525869
535 0 3 0.053000 45.108536 35.412979 22.098900
536 0 2 0.248100 46.076797 36.894760 23.437971
537 0 3 0.053000 46.837521 37.510460 23.941799
538 0 3 0.053000 45.145920 36.786350 23.464342
539 0 3 0.053000 46.405025 36.763725 23.019831
540 0 4 -1.000000 48.487526 37.827374 24.406572
541 0 1 -0.628400 12.560282 40.901249 23.311062
542 0 2 0.248100 13.638685 41.642303 24.074364
543 0 3 0.053000 14.001003 41.699604 24.302221
544 0 3 0.053000 13.301163 41.948071 24.518143
545 0 3 0.053000 14.631576 41.980576 24.122108
546 0 2 0.248100 12.388639 40.498016 23.190224
547 0 3 0.053000 11.955372 40.588921 23.575565
548 0 3 0.053000 13.336985 40.639172 23.214649
549 0 3 0.053000 11.718336 39.883499 22.661106
550 0 2 0.248100 11.474173 40.156734 22.549511
551 0 3 0.053000 11.163501 40.103317 22.309942
552 0 3 0.053000 10.477959 39.843609 22.525869
553 0 3 0.053000 11.767230 39.827374 22.098900
554 0 2 0.248100 12.735492 41.309151 23.437971
555 0 3 0.053000 13.496216 41.924854 23.941799
556 0 3 0.053000 11.804615 41.200745 23.464342
557 0 3 0.053000 13.063719 41.178116 23.019831
558 0 4 -1.000000 15.146219 42.241768 24.406572
559 0 1 -0.628400 19.228542 40.901249 23.311062
560 0 2 0.248100 20.306946 41.642303 24.074364
561 0 3 0.053000 20.669264 41.699604 24.302221
562 0 3 0.053000 19.969425 41.948071 24.518143
563 0 3 0.053000 21.299837 41.980576 24.122108
564 0 2 0.248100 19.056900 40.498016 23.190224
565 0 3 0.053000 18.623634 40.588921 23.575565
566 0 3 0.053000 20.005245 40.639172 23.214649
567 0 3 0.053000 18.386597 39.883499 22.661106
568 0 2 0.248100 18.142433 40.156734 22.549511
569 0 3 0.053000 17.831762 40.103317 22.309942
570 0 3 0.053000 17.146219 39.843609 22.525869
571 0 3 0.053000 18.435492 39.827374 22.098900
572 0 2 0.248100 19.403753 41.309151 23.437971
573 0 3 0.053000 20.164476 41.924854 23.941799
574 0 3 0.053000 18.472878 41.200745 23.464342
575 0 3 0.053000 19.731979 41.178116 23.019831
576 0 4 -1.000000 21.814480 42.241768 24.406572
577 0 1 -0.628400 25.896803 40.901249 23.311062
578 0 2 0.248100 26.975208 41.642303 24.074364
579 0 3 0.053000 27.337524 41.699604 24.302221
580 0 3 0.053000 26.637686 41.948071 24.518143
581 0 3 0.053000 27.968098 41.980576 24.122108
582 0 2 0.248100 25.725163 40.498016 23.190224
583 0 3 0.053000 25.291895 40.588921 23.575565
584 0 3 0.053000 26.673506 40.639172 23.214649
585 0 3 0.053000 25.054859 39.883499 22.661106
586 0 2 0.248100 24.810694 40.156734 22.549511
587 0 3 0.053000 24.500023 40.103317 22.309942
588 0 3 0.053000 23.814480 39.843609 22.525869
589 0 3 0.053000 25.103752 39.827374 22.098900
590 0 2 0.248100 26.072014 41.309151 23.437971
591 0 3 0.053000 26.832737 41.924854 23.941799
592 0 3 0.053000 25.141138 41.200745 23.464342
593 0 3 0.053000 26.400242 41.178116 23.019831
594 0 4 -1.000000 28.482742 42.241768 24.406572
595 0 1 -0.628400 32.565063 40.901249 23.311062
596 0 2 0.248100 33.643471 41.642303 24.074364
597 0 3 0.053000 34.005787 41.699604 24.302221
598 0 3 0.053000 33.305946 41.948071 24.518143
599 0 3 0.053000 34.636360 41.980576 24.122108
600 0 2 0.248100 32.393425 40.498016 23.190224
601 0 3 0.053000 31.960155 40.588921 23.575565
602 0 3 0.053000 33.341766 40.639172 23.214649
603 0 3 0.053000 31.723120 39.883499 22.661106
604 0 2 0.248100 31.478956 40.156734 22.549511
605 0 3 0.053000 31.168283 40.103317 22.309942
606 0 3 0.053000 30.482742 39.843609 22.525869
607 0 3 0.053000 31.772015 39.827374 22.098900
608 0 2 0.248100 32.740276 41.309151 23.437971
609 0 3 0.053000 33.500999 41.924854 23.941799
610 0 3 0.053000 31.809399 41.200745 23.464342
611 0 3 0.053000 33.068504 41.178116 23.019831
612 0 4 -1.000000 35.151001 42.241768 24.406572
613 0 1 -0.628400 39.233326 40.901249 23.311062
614 0 2 0.248100 40.311729 41.642303 24.074364
615 0 3 0.053000 40.674049 41.699604 24.302221
616 0 3 0.053000 39.974205 41.948071 24.518143
617 0 3 0.053000 41.304619 41.980576 24.122108
618 0 2 0.248100 39.061684 40.498016 23.190224
619 0 3 0.053000 38.628418 40.588921 23.575565
620 0 3 0.053000 40.010029 40.639172 23.214649
621 0 3 0.053000 38.391380 39.883499 22.661106
622 0 2 0.248100 38.147217 40.156734 22.549511
623 0 3 0.053000 37.836544 40.103317 22.309942
624 0 3 0.053000 37.151001 39.843609 22.525869
625 0 3 0.053000 38.440277 39.827374 22.098900
626 0 2 0.248100 39.408535 41.309151 23.437971
627 0 3 0.053000 40.169258 41.924854 23.941799
628 0 3 0.053000 38.477661 41.200745 23.464342
629 0 3 0.053000 39.736763 41.178116 23.019831
630 0 4 -1.000000 41.819263 42.241768 24.406572
631 0 1 -0.628400 45.901585 40.901249 23.311062