LAMMPS data file containing the original structures and the polarizable gold

7956 atoms
4328 bonds
1500 angles
1800 dihedrals
0 impropers

6 atom types
3 bond types
3 angle types
1 dihedral types

-3.000000 61.985802 xlo xhi
-3.000000 61.997501 ylo yhi
-3.000000 40.775867 zlo zhi

Masses

1 14.006700
2 12.011150
3 1.007970
4 79.908997
5 195.960000
6 1.000000

Atoms

1 0 1 -0.628400 19.495178 23.067118 23.311062
2 0 2 0.248100 20.573582 23.808172 24.074364
3 0 3 0.053000 20.935900 23.865473 24.302221
4 0 3 0.053000 20.236059 24.113939 24.518143
5 0 3 0.053000 21.566471 24.146444 24.122108
6 0 2 0.248100 19.323536 22.663885 23.190224
7 0 3 0.053000 18.890268 22.754791 23.575565
8 0 3 0.053000 20.271881 22.805040 23.214649
9 0 3 0.053000 18.653233 22.049368 22.661106
10 0 2 0.248100 18.409069 22.322603 22.549511
11 0 3 0.053000 18.098396 22.269184 22.309942
12 0 3 0.053000 17.412855 22.009478 22.525869
13 0 3 0.053000 18.702127 21.993242 22.098900
14 0 2 0.248100 19.670387 23.475019 23.437971
15 0 3 0.053000 20.431112 24.090721 23.941799
16 0 3 0.053000 18.739511 23.366611 23.464342
17 0 3 0.053000 19.998615 23.343985 23.019831
18 0 4 -1.000000 22.081116 24.407635 24.406572
19 0 1 -0.628400 26.163439 23.067118 23.311062
20 0 2 0.248100 27.241844 23.808172 24.074364
21 0 3 0.053000 27.604160 23.865473 24.302221
22 0 3 0.053000 26.904320 24.113939 24.518143
23 0 3 0.053000 28.234734 24.146444 24.122108
24 0 2 0.248100 25.991796 22.663885 23.190224
25 0 3 0.053000 25.558529 22.754791 23.575565
26 0 3 0.053000 26.940142 22.805040 23.214649
27 0 3 0.053000 25.321495 22.049368 22.661106
28 0 2 0.248100 25.077330 22.322603 22.549511
29 0 3 0.053000 24.766659 22.269184 22.309942
30 0 3 0.053000 24.081116 22.009478 22.525869
31 0 3 0.053000 25.370388 21.993242 22.098900
32 0 2 0.248100 26.338650 23.475019 23.437971
33 0 3 0.053000 27.099373 24.090721 23.941799
34 0 3 0.053000 25.407772 23.366611 23.464342
35 0 3 0.053000 26.666878 23.343985 23.019831
36 0 4 -1.000000 28.749378 24.407635 24.406572
37 0 1 -0.628400 32.831699 23.067118 23.311062
38 0 2 0.248100 33.910103 23.808172 24.074364
39 0 3 0.053000 34.272423 23.865473 24.302221
40 0 3 0.053000 33.572582 24.113939 24.518143
41 0 3 0.053000 34.902992 24.146444 24.122108
42 0 2 0.248100 32.660057 22.663885 23.190224
43 0 3 0.053000 32.226791 22.754791 23.575565
44 0 3 0.053000 33.608402 22.805040 23.214649
45 0 3 0.053000 31.989756 22.049368 22.661106
46 0 2 0.248100 31.745590 22.322603 22.549511
47 0 3 0.053000 31.434919 22.269184 22.309942
48 0 3 0.053000 30.749378 22.009478 22.525869
49 0 3 0.053000 32.038651 21.993242 22.098900
50 0 2 0.248100 33.006912 23.475019 23.437971
51 0 3 0.053000 33.767632 24.090721 23.941799
52 0 3 0.053000 32.076035 23.366611 23.464342
53 0 3 0.053000 33.335136 23.343985 23.019831
54 0 4 -1.000000 35.417641 24.407635 24.406572
55 0 1 -0.628400 39.499962 23.067118 23.311062
56 0 2 0.248100 40.578365 23.808172 24.074364
57 0 3 0.053000 40.940681 23.865473 24.302221
58 0 3 0.053000 40.240845 24.113939 24.518143
59 0 3 0.053000 41.571259 24.146444 24.122108
60 0 2 0.248100 39.328320 22.663885 23.190224
61 0 3 0.053000 38.895050 22.754791 23.575565
62 0 3 0.053000 40.276665 22.805040 23.214649
63 0 3 0.053000 38.658016 22.049368 22.661106
64 0 2 0.248100 38.413853 22.322603 22.549511
65 0 3 0.053000 38.103180 22.269184 22.309942
66 0 3 0.053000 37.417641 22.009478 22.525869
67 0 3 0.053000 38.706909 21.993242 22.098900
68 0 2 0.248100 39.675171 23.475019 23.437971
69 0 3 0.053000 40.435898 24.090721 23.941799
70 0 3 0.053000 38.744293 23.366611 23.464342
71 0 3 0.053000 40.003399 23.343985 23.019831
72 0 4 -1.000000 42.085899 24.407635 24.406572
73 0 1 -0.628400 19.495178 27.481510 23.311062
74 0 2 0.248100 20.573582 28.222565 24.074364
75 0 3 0.053000 20.935900 28.279865 24.302221
76 0 3 0.053000 20.236059 28.528332 24.518143
77 0 3 0.053000 21.566471 28.560837 24.122108
78 0 2 0.248100 19.323536 27.078278 23.190224
79 0 3 0.053000 18.890268 27.169184 23.575565
80 0 3 0.053000 20.271881 27.219433 23.214649
81 0 3 0.053000 18.653233 26.463760 22.661106
82 0 2 0.248100 18.409069 26.736996 22.549511
83 0 3 0.053000 18.098396 26.683577 22.309942
84 0 3 0.053000 17.412855 26.423870 22.525869
85 0 3 0.053000 18.702127 26.407635 22.098900
86 0 2 0.248100 19.670387 27.889412 23.437971
87 0 3 0.053000 20.431112 28.505114 23.941799
88 0 3 0.053000 18.739511 27.781002 23.464342
89 0 3 0.053000 19.998615 27.758377 23.019831
90 0 4 -1.000000 22.081116 28.822025 24.406572
91 0 1 -0.628400 26.163439 27.481510 23.311062
92 0 2 0.248100 27.241844 28.222565 24.074364
93 0 3 0.053000 27.604160 28.279865 24.302221
94 0 3 0.053000 26.904320 28.528332 24.518143
95 0 3 0.053000 28.234734 28.560837 24.122108
96 0 2 0.248100 25.991796 27.078278 23.190224
97 0 3 0.053000 25.558529 27.169184 23.575565
98 0 3 0.053000 26.940142 27.219433 23.214649
99 0 3 0.053000 25.321495 26.463760 22.661106
100 0 2 0.248100 25.077330 26.736996 22.549511
101 0 3 0.053000 24.766659 26.683577 22.309942
102 0 3 0.053000 24.081116 26.423870 22.525869
103 0 3 0.053000 25.370388 26.407635 22.098900
104 0 2 0.248100 26.338650 27.889412 23.437971
105 0 3 0.053000 27.099373 28.505114 23.941799
106 0 3 0.053000 25.407772 27.781002 23.464342
107 0 3 0.053000 26.666878 27.758377 23.019831
108 0 4 -1.000000 28.749378 28.822025 24.406572
109 0 1 -0.628400 32.831699 27.481510 23.311062
110 0 2 0.248100 33.910103 28.222565 24.074364
111 0 3 0.053000 34.272423 28.279865 24.302221
112 0 3 0.053000 33.572582 28.528332 24.518143
113 0 3 0.053000 34.902992 28.560837 24.122108
114 0 2 0.248100 32.660057 27.078278 23.190224
115 0 3 0.053000 32.226791 27.169184 23.575565
116 0 3 0.053000 33.608402 27.219433 23.214649
117 0 3 0.053000 31.989756 26.463760 22.661106
118 0 2 0.248100 31.745590 26.736996 22.549511
119 0 3 0.053000 31.434919 26.683577 22.309942
120 0 3 0.053000 30.749378 26.423870 22.525869
121 0 3 0.053000 32.038651 26.407635 22.098900
122 0 2 0.248100 33.006912 27.889412 23.437971
123 0 3 0.053000 33.767632 28.505114 23.941799
124 0 3 0.053000 32.076035 27.781002 23.464342
125 0 3 0.053000 33.335136 27.758377 23.019831
126 0 4 -1.000000 35.417641 28.822025 24.406572
127 0 1 -0.628400 39.499962 27.481510 23.311062
128 0 2 0.248100 40.578365 28.222565 24.074364
129 0 3 0.053000 40.940681 28.279865 24.302221
130 0 3 0.053000 40.240845 28.528332 24.518143
131 0 3 0.053000 41.571259 28.560837 24.122108
132 0 2 0.248100 39.328320 27.078278 23.190224
133 0 3 0.053000 38.895050 27.169184 23.575565
134 0 3 0.053000 40.276665 27.219433 23.214649
135 0 3 0.053000 38.658016 26.463760 22.661106
136 0 2 0.248100 38.413853 26.736996 22.549511
137 0 3 0.053000 38.103180 26.683577 22.309942
138 0 3 0.053000 37.417641 26.423870 22.525869
139 0 3 0.053000 38.706909 26.407635 22.098900
140 0 2 0.248100 39.675171 27.889412 23.437971
141 0 3 0.053000 40.435898 28.505114 23.941799
142 0 3 0.053000 38.744293 27.781002 23.464342
143 0 3 0.053000 40.003399 27.758377 23.019831
144 0 4 -1.000000 42.085899 28.822025 24.406572
145 0 1 -0.628400 19.495178 31.895901 23.311062
146 0 2 0.248100 20.573582 32.636955 24.074364
147 0 3 0.053000 20.935900 32.694256 24.302221
148 0 3 0.053000 20.236059 32.942722 24.518143
149 0 3 0.053000 21.566471 32.975227 24.122108
150 0 2 0.248100 19.323536 31.492668 23.190224
151 0 3 0.053000 18.890268 31.583576 23.575565
152 0 3 0.053000 20.271881 31.633823 23.214649
153 0 3 0.053000 18.653233 30.878151 22.661106
154 0 2 0.248100 18.409069 31.151386 22.549511
155 0 3 0.053000 18.098396 31.097969 22.309942
156 0 3 0.053000 17.412855 30.838261 22.525869
157 0 3 0.053000 18.702127 30.822025 22.098900
158 0 2 0.248100 19.670387 32.303802 23.437971
159 0 3 0.053000 20.431112 32.919506 23.941799
160 0 3 0.053000 18.739511 32.195396 23.464342
161 0 3 0.053000 19.998615 32.172768 23.019831
162 0 4 -1.000000 22.081116 33.236420 24.406572
163 0 1 -0.628400 26.163439 31.895901 23.311062
164 0 2 0.248100 27.241844 32.636955 24.074364
165 0 3 0.053000 27.604160 32.694256 24.302221
166 0 3 0.053000 26.904320 32.942722 24.518143
167 0 3 0.053000 28.234734 32.975227 24.122108
168 0 2 0.248100 25.991796 31.492668 23.190224
169 0 3 0.053000 25.558529 31.583576 23.575565
170 0 3 0.053000 26.940142 31.633823 23.214649
171 0 3 0.053000 25.321495 30.878151 22.661106
172 0 2 0.248100 25.077330 31.151386 22.549511
173 0 3 0.053000 24.766659 31.097969 22.309942
174 0 3 0.053000 24.081116 30.838261 22.525869
175 0 3 0.053000 25.370388 30.822025 22.098900
176 0 2 0.248100 26.338650 32.303802 23.437971
177 0 3 0.053000 27.099373 32.919506 23.941799
178 0 3 0.053000 25.407772 32.195396 23.464342
179 0 3 0.053000 26.666878 32.172768 23.019831
180 0 4 -1.000000 28.749378 33.236420 24.406572
181 0 1 -0.628400 32.831699 31.895901 23.311062
182 0 2 0.248100 33.910103 32.636955 24.074364
183 0 3 0.053000 34.272423 32.694256 24.302221
184 0 3 0.053000 33.572582 32.942722 24.518143
185 0 3 0.053000 34.902992 32.975227 24.122108
186 0 2 0.248100 32.660057 31.492668 23.190224
187 0 3 0.053000 32.226791 31.583576 23.575565
188 0 3 0.053000 33.608402 31.633823 23.214649
189 0 3 0.053000 31.989756 30.878151 22.661106
190 0 2 0.248100 31.745590 31.151386 22.549511
191 0 3 0.053000 31.434919 31.097969 22.309942
192 0 3 0.053000 30.749378 30.838261 22.525869
193 0 3 0.053000 32.038651 30.822025 22.098900
194 0 2 0.248100 33.006912 32.303802 23.437971
195 0 3 0.053000 33.767632 32.919506 23.941799
196 0 3 0.053000 32.076035 32.195396 23.464342
197 0 3 0.053000 33.335136 32.172768 23.019831
198 0 4 -1.000000 35.417641 33.236420 24.406572
199 0 1 -0.628400 39.499962 31.895901 23.311062
200 0 2 0.248100 40.578365 32.636955 24.074364
201 0 3 0.053000 40.940681 32.694256 24.302221
202 0 3 0.053000 40.240845 32.942722 24.518143
203 0 3 0.053000 41.571259 32.975227 24.122108
204 0 2 0.248100 39.328320 31.492668 23.190224
205 0 3 0.053000 38.895050 31.583576 23.575565
206 0 3 0.053000 40.276665 31.633823 23.214649
207 0 3 0.053000 38.658016 30.878151 22.661106
208 0 2 0.248100 38.413853 31.151386 22.549511
209 0 3 0.053000 38.103180 31.097969 22.309942
210 0 3 0.053000 37.417641 30.838261 22.525869
211 0 3 0.053000 38.706909 30.822025 22.098900
212 0 2 0.248100 39.675171 32.303802 23.437971
213 0 3 0.053000 40.435898 32.919506 23.941799
214 0 3 0.053000 38.744293 32.195396 23.464342
215 0 3 0.053000 40.003399 32.172768 23.019831
216 0 4 -1.000000 42.085899 33.236420 24.406572
217 0 1 -0.628400 19.495178 36.310291 23.311062
218 0 2 0.248100 20.573582 37.051346 24.074364
219 0 3 0.053000 20.935900 37.108646 24.302221
220 0 3 0.053000 20.236059 37.357113 24.518143
221 0 3 0.053000 21.566471 37.389618 24.122108
222 0 2 0.248100 19.323536 35.907059 23.190224
223 0 3 0.053000 18.890268 35.997967 23.575565
224 0 3 0.053000 20.271881 36.048218 23.214649
225 0 3 0.053000 18.653233 35.292542 22.661106
226 0 2 0.248100 18.409069 35.565781 22.549511
227 0 3 0.053000 18.098396 35.512360 22.309942
228 0 3 0.053000 17.412855 35.252655 22.525869
229 0 3 0.053000 18.702127 35.236420 22.098900
230 0 2 0.248100 19.670387 36.718193 23.437971
231 0 3 0.053000 20.431112 37.333897 23.941799
232 0 3 0.053000 18.739511 36.609787 23.464342
233 0 3 0.053000 19.998615 36.587158 23.019831
234 0 4 -1.000000 22.081116 37.650810 24.406572
235 0 1 -0.628400 26.163439 36.310291 23.311062
236 0 2 0.248100 27.241844 37.051346 24.074364
237 0 3 0.053000 27.604160 37.108646 24.302221
238 0 3 0.053000 26.904320 37.357113 24.518143
239 0 3 0.053000 28.234734 37.389618 24.122108
240 0 2 0.248100 25.991796 35.907059 23.190224
241 0 3 0.053000 25.558529 35.997967 23.575565
242 0 3 0.053000 26.940142 36.048218 23.214649
243 0 3 0.053000 25.321495 35.292542 22.661106
244 0 2 0.248100 25.077330 35.565781 22.549511
245 0 3 0.053000 24.766659 35.512360 22.309942
246 0 3 0.053000 24.081116 35.252655 22.525869
247 0 3 0.053000 25.370388 35.236420 22.098900
248 0 2 0.248100 26.338650 36.718193 23.437971
249 0 3 0.053000 27.099373 37.333897 23.941799
250 0 3 0.053000 25.407772 36.609787 23.464342
251 0 3 0.053000 26.666878 36.587158 23.019831
252 0 4 -1.000000 28.749378 37.650810 24.406572
253 0 1 -0.628400 32.831699 36.310291 23.311062
254 0 2 0.248100 33.910103 37.051346 24.074364
255 0 3 0.053000 34.272423 37.108646 24.302221
256 0 3 0.053000 33.572582 37.357113 24.518143
257 0 3 0.053000 34.902992 37.389618 24.122108
258 0 2 0.248100 32.660057 35.907059 23.190224
259 0 3 0.053000 32.226791 35.997967 23.575565
260 0 3 0.053000 33.608402 36.048218 23.214649
261 0 3 0.053000 31.989756 35.292542 22.661106
262 0 2 0.248100 31.745590 35.565781 22.549511
263 0 3 0.053000 31.434919 35.512360 22.309942
264 0 3 0.053000 30.749378 35.252655 22.525869
265 0 3 0.053000 32.038651 35.236420 22.098900
266 0 2 0.248100 33.006912 36.718193 23.437971
267 0 3 0.053000 33.767632 37.333897 23.941799
268 0 3 0.053000 32.076035 36.609787 23.464342
269 0 3 0.053000 33.335136 36.587158 23.019831
270 0 4 -1.000000 35.417641 37.650810 24.406572
271 0 1 -0.628400 39.499962 36.310291 23.311062
272 0 2 0.248100 40.578365 37.051346 24.074364
273 0 3 0.053000 40.940681 37.108646 24.302221
274 0 3 0.053000 40.240845 37.357113 24.518143
275 0 3 0.053000 41.571259 37.389618 24.122108
276 0 2 0.248100 39.328320 35.907059 23.190224
277 0 3 0.053000 38.895050 35.997967 23.575565
278 0 3 0.053000 40.276665 36.048218 23.214649
279 0 3 0.053000 38.658016 35.292542 22.661106
280 0 2 0.248100 38.413853 35.565781 22.549511
281 0 3 0.053000 38.103180 35.512360 22.309942
282 0 3 0.053000 37.417641 35.252655 22.525869
283 0 3 0.053000 38.706909 35.236420 22.098900
284 0 2 0.248100 39.675171 36.718193 23.437971
285 0 3 0.053000 40.435898 37.333897 23.941799
286 0 3 0.053000 38.744293 36.609787 23.464342
287 0 3 0.053000 40.003399 36.587158 23.019831
288 0 4 -1.000000 42.085899 37.650810 24.406572
289 0 1 -0.628400 19.495178 23.067118 27.730305
290 0 2 0.248100 20.573582 23.808172 28.493607
291 0 3 0.053000 20.935900 23.865473 28.721464
292 0 3 0.053000 20.236059 24.113939 28.937386
293 0 3 0.053000 21.566471 24.146444 28.541351
294 0 2 0.248100 19.323536 22.663885 27.609465
295 0 3 0.053000 18.890268 22.754791 27.994806
296 0 3 0.053000 20.271881 22.805040 27.633892
297 0 3 0.053000 18.653233 22.049368 27.080349
298 0 2 0.248100 18.409069 22.322603 26.968754
299 0 3 0.053000 18.098396 22.269184 26.729183
300 0 3 0.053000 17.412855 22.009478 26.945112
301 0 3 0.053000 18.702127 21.993242 26.518143
302 0 2 0.248100 19.670387 23.475019 27.857212
303 0 3 0.053000 20.431112 24.090721 28.361042
304 0 3 0.053000 18.739511 23.366611 27.883583
305 0 3 0.053000 19.998615 23.343985 27.439072
306 0 4 -1.000000 22.081116 24.407635 28.825815
307 0 1 -0.628400 26.163439 23.067118 27.730305
308 0 2 0.248100 27.241844 23.808172 28.493607
309 0 3 0.053000 27.604160 23.865473 28.721464
310 0 3 0.053000 26.904320 24.113939 28.937386
311 0 3 0.053000 28.234734 24.146444 28.541351
312 0 2 0.248100 25.991796 22.663885 27.609465
313 0 3 0.053000 25.558529 22.754791 27.994806
314 0 3 0.053000 26.940142 22.805040 27.633892
315 0 3 0.053000 25.321495 22.049368 27.080349
316 0 2 0.248100 25.077330 22.322603 26.968754
317 0 3 0.053000 24.766659 22.269184 26.729183
318 0 3 0.053000 24.081116 22.009478 26.945112
319 0 3 0.053000 25.370388 21.993242 26.518143
320 0 2 0.248100 26.338650 23.475019 27.857212
321 0 3 0.053000 27.099373 24.090721 28.361042
322 0 3 0.053000 25.407772 23.366611 27.883583
323 0 3 0.053000 26.666878 23.343985 27.439072
324 0 4 -1.000000 28.749378 24.407635 28.825815
325 0 1 -0.628400 32.831699 23.067118 27.730305
326 0 2 0.248100 33.910103 23.808172 28.493607
327 0 3 0.053000 34.272423 23.865473 28.721464
328 0 3 0.053000 33.572582 24.113939 28.937386
329 0 3 0.053000 34.902992 24.146444 28.541351
330 0 2 0.248100 32.660057 22.663885 27.609465
331 0 3 0.053000 32.226791 22.754791 27.994806
332 0 3 0.053000 33.608402 22.805040 27.633892
333 0 3 0.053000 31.989756 22.049368 27.080349
334 0 2 0.248100 31.745590 22.322603 26.968754
335 0 3 0.053000 31.434919 22.269184 26.729183
336 0 3 0.053000 30.749378 22.009478 26.945112
337 0 3 0.053000 32.038651 21.993242 26.518143
338 0 2 0.248100 33.006912 23.475019 27.857212
339 0 3 0.053000 33.767632 24.090721 28.361042
340 0 3 0.053000 32.076035 23.366611 27.883583
341 0 3 0.053000 33.335136 23.343985 27.439072
342 0 4 -1.000000 35.417641 24.407635 28.825815
343 0 1 -0.628400 39.499962 23.067118 27.730305
344 0 2 0.248100 40.578365 23.808172 28.493607
345 0 3 0.053000 40.940681 23.865473 28.721464
346 0 3 0.053000 40.240845 24.113939 28.937386
347 0 3 0.053000 41.571259 24.146444 28.541351
348 0 2 0.248100 39.328320 22.663885 27.609465
349 0 3 0.053000 38.895050 22.754791 27.994806
350 0 3 0.053000 40.276665 22.805040 27.633892
351 0 3 0.053000 38.658016 22.049368 27.080349
352 0 2 0.248100 38.413853 22.322603 26.968754
353 0 3 0.053000 38.103180 22.269184 26.729183
354 0 3 0.053000 37.417641 22.009478 26.945112
355 0 3 0.053000 38.706909 21.993242 26.518143
356 0 2 0.248100 39.675171 23.475019 27.857212
357 0 3 0.053000 40.435898 24.090721 28.361042
358 0 3 0.053000 38.744293 23.366611 27.883583
359 0 3 0.053000 40.003399 23.343985 27.439072
360 0 4 -1.000000 42.085899 24.407635 28.825815
361 0 1 -0.628400 19.495178 27.481510 27.730305
362 0 2 0.248100 20.573582 28.222565 28.493607
363 0 3 0.053000 20.935900 28.279865 28.721464
364 0 3 0.053000 20.236059 28.528332 28.937386
365 0 3 0.053000 21.566471 28.560837 28.541351
366 0 2 0.248100 19.323536 27.078278 27.609465
367 0 3 0.053000 18.890268 27.169184 27.994806
368 0 3 0.053000 20.271881 27.219433 27.633892
369 0 3 0.053000 18.653233 26.463760 27.080349
370 0 2 0.248100 18.409069 26.736996 26.968754
371 0 3 0.053000 18.098396 26.683577 26.729183
372 0 3 0.053000 17.412855 26.423870 26.945112
373 0 3 0.053000 18.702127 26.407635 26.518143
374 0 2 0.248100 19.670387 27.889412 27.857212
375 0 3 0.053000 20.431112 28.505114 28.361042
376 0 3 0.053000 18.739511 27.781002 27.883583
377 0 3 0.053000 19.998615 27.758377 27.439072
378 0 4 -1.000000 22.081116 28.822025 28.825815
379 0 1 -0.628400 26.163439 27.481510 27.730305
380 0 2 0.248100 27.241844 28.222565 28.493607
381 0 3 0.053000 27.604160 28.279865 28.721464
382 0 3 0.053000 26.904320 28.528332 28.937386
383 0 3 0.053000 28.234734 28.560837 28.541351
384 0 2 0.248100 25.991796 27.078278 27.609465
385 0 3 0.053000 25.558529 27.169184 27.994806
386 0 3 0.053000 26.940142 27.219433 27.633892
387 0 3 0.053000 25.321495 26.463760 27.080349
388 0 2 0.248100 25.077330 26.736996 26.968754
389 0 3 0.053000 24.766659 26.683577 26.729183
390 0 3 0.053000 24.081116 26.423870 26.945112
391 0 3 0.053000 25.370388 26.407635 26.518143
392 0 2 0.248100 26.338650 27.889412 27.857212
393 0 3 0.053000 27.099373 28.505114 28.361042
394 0 3 0.053000 25.407772 27.781002 27.883583
395 0 3 0.053000 26.666878 27.758377 27.439072
396 0 4 -1.000000 28.749378 28.822025 28.825815
397 0 1 -0.628400 32.831699 27.481510 27.730305
398 0 2 0.248100 33.910103 28.222565 28.493607
399 0 3 0.053000 34.272423 28.279865 28.721464
400 0 3 0.053000 33.572582 28.528332 28.937386
401 0 3 0.053000 34.902992 28.560837 28.541351
402 0 2 0.248100 32.660057 27.078278 27.609465
403 0 3 0.053000 32.226791 27.169184 27.994806
404 0 3 0.053000 33.608402 27.219433 27.633892
405 0 3 0.053000 31.989756 26.463760 27.080349
406 0 2 0.248100 31.745590 26.736996 26.968754
407 0 3 0.053000 31.434919 26.683577 26.729183
408 0 3 0.053000 30.749378 26.423870 26.945112
409 0 3 0.053000 32.038651 26.407635 26.518143
410 0 2 0.248100 33.006912 27.889412 27.857212
411 0 3 0.053000 33.767632 28.505114 28.361042
412 0 3 0.053000 32.076035 27.781002 27.883583
413 0 3 0.053000 33.335136 27.758377 27.439072
414 0 4 -1.000000 35.417641 28.822025 28.825815
415 0 1 -0.628400 39.499962 27.481510 27.730305
416 0 2 0.248100 40.578365 28.222565 28.493607
417 0 3 0.053000 40.940681 28.279865 28.721464
418 0 3 0.053000 40.240845 28.528332 28.937386
419 0 3 0.053000 41.571259 28.560837 28.541351
420 0 2 0.248100 39.328320 27.078278 27.609465
421 0 3 0.053000 38.895050 27.169184 27.994806
422 0 3 0.053000 40.276665 27.219433 27.633892
423 0 3 0.053000 38.658016 26.463760 27.080349
424 0 2 0.248100 38.413853 26.736996 26.968754
425 0 3 0.053000 38.103180 26.683577 26.729183
426 0 3 0.053000 37.417641 26.423870 26.945112
427 0 3 0.053000 38.706909 26.407635 26.518143
428 0 2 0.248100 39.675171 27.889412 27.857212
429 0 3 0.053000 40.435898 28.505114 28.361042
430 0 3 0.053000 38.744293 27.781002 27.883583
431 0 3 0.053000 40.003399 27.758377 27.439072
432 0 4 -1.000000 42.085899 28.822025 28.825815
433 0 1 -0.628400 19.495178 31.895901 27.730305
434 0 2 0.248100 20.573582 32.636955 28.493607
435 0 3 0.053000 20.935900 32.694256 28.721464
436 0 3 0.053000 20.236059 32.942722 28.937386
437 0 3 0.053000 21.566471 32.975227 28.541351
438 0 2 0.248100 19.323536 31.492668 27.609465
439 0 3 0.053000 18.890268 31.583576 27.994806
440 0 3 0.053000 20.271881 31.633823 27.633892
441 0 3 0.053000 18.653233 30.878151 27.080349
442 0 2 0.248100 18.409069 31.151386 26.968754
443 0 3 0.053000 18.098396 31.097969 26.729183
444 0 3 0.053000 17.412855 30.838261 26.945112
445 0 3 0.053000 18.702127 30.822025 26.518143
446 0 2 0.248100 19.670387 32.303802 27.857212
447 0 3 0.053000 20.431112 32.919506 28.361042
448 0 3 0.053000 18.739511 32.195396 27.883583
449 0 3 0.053000 19.998615 32.172768 27.439072
450 0 4 -1.000000 22.081116 33.236420 28.825815
451 0 1 -0.628400 26.163439 31.895901 27.730305
452 0 2 0.248100 27.241844 32.636955 28.493607
453 0 3 0.053000 27.604160 32.694256 28.721464
454 0 3 0.053000 26.904320 32.942722 28.937386
455 0 3 0.053000 28.234734 32.975227 28.541351
456 0 2 0.248100 25.991796 31.492668 27.609465
457 0 3 0.053000 25.558529 31.583576 27.994806
458 0 3 0.053000 26.940142 31.633823 27.633892
459 0 3 0.053000 25.321495 30.878151 27.080349
460 0 2 0.248100 25.077330 31.151386 26.968754
461 0 3 0.053000 24.766659 31.097969 26.729183
462 0 3 0.053000 24.081116 30.838261 26.945112
463 0 3 0.053000 25.370388 30.822025 26.518143
464 0 2 0.248100 26.338650 32.303802 27.857212
465 0 3 0.053000 27.099373 32.919506 28.361042
466 0 3 0.053000 25.407772 32.195396 27.883583
467 0 3 0.053000 26.666878 32.172768 27.439072
468 0 4 -1.000000 28.749378 33.236420 28.825815
469 0 1 -0.628400 32.831699 31.895901 27.730305
470 0 2 0.248100 33.910103 32.636955 28.493607
471 0 3 0.053000 34.272423 32.694256 28.721464
472 0 3 0.053000 33.572582 32.942722 28.937386
473 0 3 0.053000 34.902992 32.975227 28.541351
474 0 2 0.248100 32.660057 31.492668 27.609465
475 0 3 0.053000 32.226791 31.583576 27.994806
476 0 3 0.053000 33.608402 31.633823 27.633892
477 0 3 0.053000 31.989756 30.878151 27.080349
478 0 2 0.248100 31.745590 31.151386 26.968754
479 0 3 0.053000 31.434919 31.097969 26.729183
480 0 3 0.053000 30.749378 30.838261 26.945112
481 0 3 0.053000 32.038651 30.822025 26.518143
482 0 2 0.248100 33.006912 32.303802 27.857212
483 0 3 0.053000 33.767632 32.919506 28.361042
484 0 3 0.053000 32.076035 32.195396 27.883583
485 0 3 0.053000 33.335136 32.172768 27.439072
486 0 4 -1.000000 35.417641 33.236420 28.825815
487 0 1 -0.628400 39.499962 31.895901 27.730305
488 0 2 0.248100 40.578365 32.636955 28.493607
489 0 3 0.053000 40.940681 32.694256 28.721464
490 0 3 0.053000 40.240845 32.942722 28.937386
491 0 3 0.053000 41.571259 32.975227 28.541351
492 0 2 0.248100 39.328320 31.492668 27.609465
493 0 3 0.053000 38.895050 31.583576 27.994806
494 0 3 0.053000 40.276665 31.633823 27.633892
495 0 3 0.053000 38.658016 30.878151 27.080349
496 0 2 0.248100 38.413853 31.151386 26.968754
497 0 3 0.053000 38.103180 31.097969 26.729183
498 0 3 0.053000 37.417641 30.838261 26.945112
499 0 3 0.053000 38.706909 30.822025 26.518143
500 0 2 0.248100 39.675171 32.303802 27.857212
501 0 3 0.053000 40.435898 32.919506 28.361042
502 0 3 0.053000 38.744293 32.195396 27.883583
503 0 3 0.053000 40.003399 32.172768 27.439072
504 0 4 -1.000000 42.085899 33.236420 28.825815
505 0 1 -0.628400 19.495178 36.310291 27.730305
506 0 2 0.248100 20.573582 37.051346 28.493607
507 0 3 0.053000 20.935900 37.108646 28.721464
508 0 3 0.053000 20.236059 37.357113 28.937386
509 0 3 0.053000 21.566471 37.389618 28.541351
510 0 2 0.248100 19.323536 35.907059 27.609465
511 0 3 0.053000 18.890268 35.997967 27.994806
512 0 3 0.053000 20.271881 36.048218 27.633892
513 0 3 0.053000 18.653233 35.292542 27.080349
514 0 2 0.248100 18.409069 35.565781 26.968754
515 0 3 0.053000 18.098396 35.512360 26.729183
516 0 3 0.053000 17.412855 35.252655 26.945112
517 0 3 0.053000 18.702127 35.236420 26.518143
518 0 2 0.248100 19.670387 36.718193 27.857212
519 0 3 0.053000 20.431112 37.333897 28.361042
520 0 3 0.053000 18.739511 36.609787 27.883583
521 0 3 0.053000 19.998615 36.587158 27.439072
522 0 4 -1.000000 22.081116 37.650810 28.825815
523 0 1 -0.628400 26.163439 36.310291 27.730305
524 0 2 0.248100 27.241844 37.051346 28.493607
525 0 3 0.053000 27.604160 37.108646 28.721464
526 0 3 0.053000 26.904320 37.357113 28.937386
527 0 3 0.053000 28.234734 37.389618 28.541351
528 0 2 0.248100 25.991796 35.907059 27.609465
529 0 3 0.053000 25.558529 35.997967 27.994806
530 0 3 0.053000 26.940142 36.048218 27.633892
531 0 3 0.053000 25.321495 35.292542 27.080349
532 0 2 0.248100 25.077330 35.565781 26.968754
533 0 3 0.053000 24.766659 35.512360 26.729183
534 0 3 0.053000 24.081116 35.252655 26.945112
535 0 3 0.053000 25.370388 35.236420 26.518143
536 0 2 0.248100 26.338650 36.718193 27.857212
537 0 3 0.053000 27.099373 37.333897 28.361042
538 0 3 0.053000 25.407772 36.609787 27.883583
539 0 3 0.053000 26.666878 36.587158 27.439072
540 0 4 -1.000000 28.749378 37.650810 28.825815
541 0 1 -0.628400 32.831699 36.310291 27.730305
542 0 2 0.248100 33.910103 37.051346 28.493607
543 0 3 0.053000 34.272423 37.108646 28.721464
544 0 3 0.053000 33.572582 37.357113 28.937386
545 0 3 0.053000 34.902992 37.389618 28.541351
546 0 2 0.248100 32.660057 35.907059 27.609465
547 0 3 0.053000 32.226791 35.997967 27.994806
548 0 3 0.053000 33.608402 36.048218 27.633892
549 0 3 0.053000 31.989756 35.292542 27.080349
550 0 2 0.248100 31.745590 35.565781 26.968754
551 0 3 0.053000 31.434919 35.512360 26.729183
552 0 3 0.053000 30.749378 35.252655 26.945112
553 0 3 0.053000 32.038651 35.236420 26.518143
554 0 2 0.248100 33.006912 36.718193 27.857212
555 0 3 0.053000 33.767632 37.333897 28.361042
556 0 3 0.053000 32.076035 36.609787 27.883583
557 0 3 0.053000 33.335136 36.587158 27.439072
558 0 4 -1.000000 35.417641 37.650810 28.825815
559 0 1 -0.628400 39.499962 36.310291 27.730305
560 0 2 0.248100 40.578365 37.051346 28.493607
561 0 3 0.053000 40.940681 37.108646 28.721464
562 0 3 0.053000 40.240845 37.357113 28.937386
563 0 3 0.053000 41.571259 37.389618 28.541351
564 0 2 0.248100 39.328320 35.907059 27.609465
565 0 3 0.053000 38.895050 35.997967 27.994806
566 0 3 0.053000 40.276665 36.048218 27.633892
567 0 3 0.053000 38.658016 35.292542 27.080349
568 0 2 0.248100 38.413853 35.565781 26.968754
569 0 3 0.053000 38.103180 35.512360 26.729183
570 0 3 0.053000 37.417641 35.252655 26.945112
571 0 3 0.053000 38.706909 35.236420 26.518143
572 0 2 0.248100 39.675171 36.718193 27.857212
573 0 3 0.053000 40.435898 37.333897 28.361042
574 0 3 0.053000 38.744293 36.609787 27.883583
575 0 3 0.053000 40.003399 36.587158 27.439072
576 0 4 -1.000000 42.085899 37.650810 28.825815
577 0 1 -0.628400 19.495178 23.067118 32.149548
578 0 2 0.248100 20.573582 23.808172 32.912849
579 0 3 0.053000 20.935900 23.865473 33.140705
580 0 3 0.053000 20.236059 24.113939 33.356628
581 0 3 0.053000 21.566471 24.146444 32.960594
582 0 2 0.248100 19.323536 22.663885 32.028709
583 0 3 0.053000 18.890268 22.754791 32.414047
584 0 3 0.053000 20.271881 22.805040 32.053131
585 0 3 0.053000 18.653233 22.049368 31.499592
586 0 2 0.248100 18.409069 22.322603 31.387997
587 0 3 0.053000 18.098396 22.269184 31.148426
588 0 3 0.053000 17.412855 22.009478 31.364353
589 0 3 0.053000 18.702127 21.993242 30.937386
590 0 2 0.248100 19.670387 23.475019 32.276455
591 0 3 0.053000 20.431112 24.090721 32.780281
592 0 3 0.053000 18.739511 23.366611 32.302826
593 0 3 0.053000 19.998615 23.343985 31.858315
594 0 4 -1.000000 22.081116 24.407635 33.245056
595 0 1 -0.628400 26.163439 23.067118 32.149548
596 0 2 0.248100 27.241844 23.808172 32.912849
597 0 3 0.053000 27.604160 23.865473 33.140705
598 0 3 0.053000 26.904320 24.113939 33.356628
599 0 3 0.053000 28.234734 24.146444 32.960594
600 0 2 0.248100 25.991796 22.663885 32.028709
601 0 3 0.053000 25.558529 22.754791 32.414047
602 0 3 0.053000 26.940142 22.805040 32.053131
603 0 3 0.053000 25.321495 22.049368 31.499592
604 0 2 0.248100 25.077330 22.322603 31.387997
605 0 3 0.053000 24.766659 22.269184 31.148426
606 0 3 0.053000 24.081116 22.009478 31.364353
607 0 3 0.053000 25.370388 21.993242 30.937386
608 0 2 0.248100 26.338650 23.475019 32.276455
609 0 3 0.053000 27.099373 24.090721 32.780281
610 0 3 0.053000 25.407772 23.366611 32.302826
611 0 3 0.053000 26.666878 23.343985 31.858315
612 0 4 -1.000000 28.749378 24.407635 33.245056
613 0 1 -0.628400 32.831699 23.067118 32.149548
614 0 2 0.248100 33.910103 23.808172 32.912849
615 0 3 0.053000 34.272423 23.865473 33.140705
616 0 3 0.053000 33.572582 24.113939 33.356628
617 0 3 0.053000 34.902992 24.146444 32.960594
618 0 2 0.248100 32.660057 22.663885 32.028709
619 0 3 0.053000 32.226791 22.754791 32.414047
620 0 3 0.053000 33.608402 22.805040 32.053131
621 0 3 0.053000 31.989756 22.049368 31.499592
622 0 2 0.248100 31.745590 22.322603 31.387997
623 0 3 0.053000 31.434919 22.269184 31.148426
624 0 3 0.053000 30.749378 22.009478 31.364353
625 0 3 0.053000 32.038651 21.993242 30.937386
626 0 2 0.248100 33.006912 23.475019 32.276455
627 0 3 0.053000 33.767632 24.090721 32.780281
628 0 3 0.053000 32.076035 23.366611 32.302826
629 0 3 0.053000 33.335136 23.343985 31.858315
630 0 4 -1.000000 35.417641 24.407635 33.245056
631 0 1 -0.628400 39.499962 23.067118 32.149548