LAMMPS data file containing the original structures and the polarizable gold

8730 atoms
5065 bonds
3000 angles
3600 dihedrals
0 impropers

6 atom types
3 bond types
3 angle types
1 dihedral types

-3.000000 62.014999 xlo xhi
-3.000000 61.997501 ylo yhi
-3.000000 41.066570 zlo zhi

Masses

1 14.006700
2 12.011150
3 1.007970
4 79.908997
5 195.960000
6 1.000000

Atoms

1 0 1 -0.628400 15.935127 20.529610 23.601763
2 0 2 0.248100 17.013531 21.270664 24.365065
3 0 3 0.053000 17.375849 21.327965 24.592922
4 0 3 0.053000 16.676008 21.576431 24.808844
5 0 3 0.053000 18.006420 21.608936 24.412809
6 0 2 0.248100 15.763485 20.126377 23.480925
7 0 3 0.053000 15.330217 20.217283 23.866264
8 0 3 0.053000 16.711830 20.267532 23.505350
9 0 3 0.053000 15.093182 19.511860 22.951807
10 0 2 0.248100 14.849018 19.785095 22.840212
11 0 3 0.053000 14.538346 19.731676 22.600643
12 0 3 0.053000 13.852804 19.471970 22.816570
13 0 3 0.053000 15.142076 19.455734 22.389601
14 0 2 0.248100 16.110336 20.937511 23.728672
15 0 3 0.053000 16.871061 21.553215 24.232500
16 0 3 0.053000 15.179461 20.829103 23.755043
17 0 3 0.053000 16.438564 20.806477 23.310532
18 0 4 -1.000000 18.521065 21.870127 24.697273
19 0 1 -0.628400 22.603388 20.529610 23.601763
20 0 2 0.248100 23.681793 21.270664 24.365065
21 0 3 0.053000 24.044109 21.327965 24.592922
22 0 3 0.053000 23.344269 21.576431 24.808844
23 0 3 0.053000 24.674683 21.608936 24.412809
24 0 2 0.248100 22.431746 20.126377 23.480925
25 0 3 0.053000 21.998478 20.217283 23.866264
26 0 3 0.053000 23.380091 20.267532 23.505350
27 0 3 0.053000 21.761444 19.511860 22.951807
28 0 2 0.248100 21.517279 19.785095 22.840212
29 0 3 0.053000 21.206608 19.731676 22.600643
30 0 3 0.053000 20.521065 19.471970 22.816570
31 0 3 0.053000 21.810337 19.455734 22.389601
32 0 2 0.248100 22.778599 20.937511 23.728672
33 0 3 0.053000 23.539322 21.553215 24.232500
34 0 3 0.053000 21.847721 20.829103 23.755043
35 0 3 0.053000 23.106827 20.806477 23.310532
36 0 4 -1.000000 25.189327 21.870127 24.697273
37 0 1 -0.628400 29.271648 20.529610 23.601763
38 0 2 0.248100 30.350054 21.270664 24.365065
39 0 3 0.053000 30.712370 21.327965 24.592922
40 0 3 0.053000 30.012531 21.576431 24.808844
41 0 3 0.053000 31.342943 21.608936 24.412809
42 0 2 0.248100 29.100006 20.126377 23.480925
43 0 3 0.053000 28.666740 20.217283 23.866264
44 0 3 0.053000 30.048351 20.267532 23.505350
45 0 3 0.053000 28.429705 19.511860 22.951807
46 0 2 0.248100 28.185539 19.785095 22.840212
47 0 3 0.053000 27.874868 19.731676 22.600643
48 0 3 0.053000 27.189327 19.471970 22.816570
49 0 3 0.053000 28.478598 19.455734 22.389601
50 0 2 0.248100 29.446859 20.937511 23.728672
51 0 3 0.053000 30.207582 21.553215 24.232500
52 0 3 0.053000 28.515984 20.829103 23.755043
53 0 3 0.053000 29.775087 20.806477 23.310532
54 0 4 -1.000000 31.857588 21.870127 24.697273
55 0 1 -0.628400 35.939911 20.529610 23.601763
56 0 2 0.248100 37.018314 21.270664 24.365065
57 0 3 0.053000 37.380630 21.327965 24.592922
58 0 3 0.053000 36.680794 21.576431 24.808844
59 0 3 0.053000 38.011208 21.608936 24.412809
60 0 2 0.248100 35.768269 20.126377 23.480925
61 0 3 0.053000 35.334999 20.217283 23.866264
62 0 3 0.053000 36.716614 20.267532 23.505350
63 0 3 0.053000 35.097965 19.511860 22.951807
64 0 2 0.248100 34.853802 19.785095 22.840212
65 0 3 0.053000 34.543129 19.731676 22.600643
66 0 3 0.053000 33.857590 19.471970 22.816570
67 0 3 0.053000 35.146858 19.455734 22.389601
68 0 2 0.248100 36.115120 20.937511 23.728672
69 0 3 0.053000 36.875847 21.553215 24.232500
70 0 3 0.053000 35.184242 20.829103 23.755043
71 0 3 0.053000 36.443348 20.806477 23.310532
72 0 4 -1.000000 38.525848 21.870127 24.697273
73 0 1 -0.628400 42.608170 20.529610 23.601763
74 0 2 0.248100 43.686577 21.270664 24.365065
75 0 3 0.053000 44.048893 21.327965 24.592922
76 0 3 0.053000 43.349052 21.576431 24.808844
77 0 3 0.053000 44.679466 21.608936 24.412809
78 0 2 0.248100 42.436531 20.126377 23.480925
79 0 3 0.053000 42.003262 20.217283 23.866264
80 0 3 0.053000 43.384872 20.267532 23.505350
81 0 3 0.053000 41.766228 19.511860 22.951807
82 0 2 0.248100 41.522064 19.785095 22.840212
83 0 3 0.053000 41.211388 19.731676 22.600643
84 0 3 0.053000 40.525848 19.471970 22.816570
85 0 3 0.053000 41.815121 19.455734 22.389601
86 0 2 0.248100 42.783379 20.937511 23.728672
87 0 3 0.053000 43.544106 21.553215 24.232500
88 0 3 0.053000 41.852505 20.829103 23.755043
89 0 3 0.053000 43.111610 20.806477 23.310532
90 0 4 -1.000000 45.194107 21.870127 24.697273
91 0 1 -0.628400 15.935127 24.944000 23.601763
92 0 2 0.248100 17.013531 25.685057 24.365065
93 0 3 0.053000 17.375849 25.742355 24.592922
94 0 3 0.053000 16.676008 25.990822 24.808844
95 0 3 0.053000 18.006420 26.023329 24.412809
96 0 2 0.248100 15.763485 24.540770 23.480925
97 0 3 0.053000 15.330217 24.631676 23.866264
98 0 3 0.053000 16.711830 24.681923 23.505350
99 0 3 0.053000 15.093182 23.926250 22.951807
100 0 2 0.248100 14.849018 24.199488 22.840212
101 0 3 0.053000 14.538346 24.146069 22.600643
102 0 3 0.053000 13.852804 23.886362 22.816570
103 0 3 0.053000 15.142076 23.870127 22.389601
104 0 2 0.248100 16.110336 25.351902 23.728672
105 0 3 0.053000 16.871061 25.967606 24.232500
106 0 3 0.053000 15.179461 25.243496 23.755043
107 0 3 0.053000 16.438564 25.220867 23.310532
108 0 4 -1.000000 18.521065 26.284519 24.697273
109 0 1 -0.628400 22.603388 24.944000 23.601763
110 0 2 0.248100 23.681793 25.685057 24.365065
111 0 3 0.053000 24.044109 25.742355 24.592922
112 0 3 0.053000 23.344269 25.990822 24.808844
113 0 3 0.053000 24.674683 26.023329 24.412809
114 0 2 0.248100 22.431746 24.540770 23.480925
115 0 3 0.053000 21.998478 24.631676 23.866264
116 0 3 0.053000 23.380091 24.681923 23.505350
117 0 3 0.053000 21.761444 23.926250 22.951807
118 0 2 0.248100 21.517279 24.199488 22.840212
119 0 3 0.053000 21.206608 24.146069 22.600643
120 0 3 0.053000 20.521065 23.886362 22.816570
121 0 3 0.053000 21.810337 23.870127 22.389601
122 0 2 0.248100 22.778599 25.351902 23.728672
123 0 3 0.053000 23.539322 25.967606 24.232500
124 0 3 0.053000 21.847721 25.243496 23.755043
125 0 3 0.053000 23.106827 25.220867 23.310532
126 0 4 -1.000000 25.189327 26.284519 24.697273
127 0 1 -0.628400 29.271648 24.944000 23.601763
128 0 2 0.248100 30.350054 25.685057 24.365065
129 0 3 0.053000 30.712370 25.742355 24.592922
130 0 3 0.053000 30.012531 25.990822 24.808844
131 0 3 0.053000 31.342943 26.023329 24.412809
132 0 2 0.248100 29.100006 24.540770 23.480925
133 0 3 0.053000 28.666740 24.631676 23.866264
134 0 3 0.053000 30.048351 24.681923 23.505350
135 0 3 0.053000 28.429705 23.926250 22.951807
136 0 2 0.248100 28.185539 24.199488 22.840212
137 0 3 0.053000 27.874868 24.146069 22.600643
138 0 3 0.053000 27.189327 23.886362 22.816570
139 0 3 0.053000 28.478598 23.870127 22.389601
140 0 2 0.248100 29.446859 25.351902 23.728672
141 0 3 0.053000 30.207582 25.967606 24.232500
142 0 3 0.053000 28.515984 25.243496 23.755043
143 0 3 0.053000 29.775087 25.220867 23.310532
144 0 4 -1.000000 31.857588 26.284519 24.697273
145 0 1 -0.628400 35.939911 24.944000 23.601763
146 0 2 0.248100 37.018314 25.685057 24.365065
147 0 3 0.053000 37.380630 25.742355 24.592922
148 0 3 0.053000 36.680794 25.990822 24.808844
149 0 3 0.053000 38.011208 26.023329 24.412809
150 0 2 0.248100 35.768269 24.540770 23.480925
151 0 3 0.053000 35.334999 24.631676 23.866264
152 0 3 0.053000 36.716614 24.681923 23.505350
153 0 3 0.053000 35.097965 23.926250 22.951807
154 0 2 0.248100 34.853802 24.199488 22.840212
155 0 3 0.053000 34.543129 24.146069 22.600643
156 0 3 0.053000 33.857590 23.886362 22.816570
157 0 3 0.053000 35.146858 23.870127 22.389601
158 0 2 0.248100 36.115120 25.351902 23.728672
159 0 3 0.053000 36.875847 25.967606 24.232500
160 0 3 0.053000 35.184242 25.243496 23.755043
161 0 3 0.053000 36.443348 25.220867 23.310532
162 0 4 -1.000000 38.525848 26.284519 24.697273
163 0 1 -0.628400 42.608170 24.944000 23.601763
164 0 2 0.248100 43.686577 25.685057 24.365065
165 0 3 0.053000 44.048893 25.742355 24.592922
166 0 3 0.053000 43.349052 25.990822 24.808844
167 0 3 0.053000 44.679466 26.023329 24.412809
168 0 2 0.248100 42.436531 24.540770 23.480925
169 0 3 0.053000 42.003262 24.631676 23.866264
170 0 3 0.053000 43.384872 24.681923 23.505350
171 0 3 0.053000 41.766228 23.926250 22.951807
172 0 2 0.248100 41.522064 24.199488 22.840212
173 0 3 0.053000 41.211388 24.146069 22.600643
174 0 3 0.053000 40.525848 23.886362 22.816570
175 0 3 0.053000 41.815121 23.870127 22.389601
176 0 2 0.248100 42.783379 25.351902 23.728672
177 0 3 0.053000 43.544106 25.967606 24.232500
178 0 3 0.053000 41.852505 25.243496 23.755043
179 0 3 0.053000 43.111610 25.220867 23.310532
180 0 4 -1.000000 45.194107 26.284519 24.697273
181 0 1 -0.628400 15.935127 29.358393 23.601763
182 0 2 0.248100 17.013531 30.099449 24.365065
183 0 3 0.053000 17.375849 30.156748 24.592922
184 0 3 0.053000 16.676008 30.405214 24.808844
185 0 3 0.053000 18.006420 30.437721 24.412809
186 0 2 0.248100 15.763485 28.955162 23.480925
187 0 3 0.053000 15.330217 29.046068 23.866264
188 0 3 0.053000 16.711830 29.096317 23.505350
189 0 3 0.053000 15.093182 28.340643 22.951807
190 0 2 0.248100 14.849018 28.613880 22.840212
191 0 3 0.053000 14.538346 28.560459 22.600643
192 0 3 0.053000 13.852804 28.300755 22.816570
193 0 3 0.053000 15.142076 28.284519 22.389601
194 0 2 0.248100 16.110336 29.766294 23.728672
195 0 3 0.053000 16.871061 30.381998 24.232500
196 0 3 0.053000 15.179461 29.657887 23.755043
197 0 3 0.053000 16.438564 29.635260 23.310532
198 0 4 -1.000000 18.521065 30.698910 24.697273
199 0 1 -0.628400 22.603388 29.358393 23.601763
200 0 2 0.248100 23.681793 30.099449 24.365065
201 0 3 0.053000 24.044109 30.156748 24.592922
202 0 3 0.053000 23.344269 30.405214 24.808844
203 0 3 0.053000 24.674683 30.437721 24.412809
204 0 2 0.248100 22.431746 28.955162 23.480925
205 0 3 0.053000 21.998478 29.046068 23.866264
206 0 3 0.053000 23.380091 29.096317 23.505350
207 0 3 0.053000 21.761444 28.340643 22.951807
208 0 2 0.248100 21.517279 28.613880 22.840212
209 0 3 0.053000 21.206608 28.560459 22.600643
210 0 3 0.053000 20.521065 28.300755 22.816570
211 0 3 0.053000 21.810337 28.284519 22.389601
212 0 2 0.248100 22.778599 29.766294 23.728672
213 0 3 0.053000 23.539322 30.381998 24.232500
214 0 3 0.053000 21.847721 29.657887 23.755043
215 0 3 0.053000 23.106827 29.635260 23.310532
216 0 4 -1.000000 25.189327 30.698910 24.697273
217 0 1 -0.628400 29.271648 29.358393 23.601763
218 0 2 0.248100 30.350054 30.099449 24.365065
219 0 3 0.053000 30.712370 30.156748 24.592922
220 0 3 0.053000 30.012531 30.405214 24.808844
221 0 3 0.053000 31.342943 30.437721 24.412809
222 0 2 0.248100 29.100006 28.955162 23.480925
223 0 3 0.053000 28.666740 29.046068 23.866264
224 0 3 0.053000 30.048351 29.096317 23.505350
225 0 3 0.053000 28.429705 28.340643 22.951807
226 0 2 0.248100 28.185539 28.613880 22.840212
227 0 3 0.053000 27.874868 28.560459 22.600643
228 0 3 0.053000 27.189327 28.300755 22.816570
229 0 3 0.053000 28.478598 28.284519 22.389601
230 0 2 0.248100 29.446859 29.766294 23.728672
231 0 3 0.053000 30.207582 30.381998 24.232500
232 0 3 0.053000 28.515984 29.657887 23.755043
233 0 3 0.053000 29.775087 29.635260 23.310532
234 0 4 -1.000000 31.857588 30.698910 24.697273
235 0 1 -0.628400 35.939911 29.358393 23.601763
236 0 2 0.248100 37.018314 30.099449 24.365065
237 0 3 0.053000 37.380630 30.156748 24.592922
238 0 3 0.053000 36.680794 30.405214 24.808844
239 0 3 0.053000 38.011208 30.437721 24.412809
240 0 2 0.248100 35.768269 28.955162 23.480925
241 0 3 0.053000 35.334999 29.046068 23.866264
242 0 3 0.053000 36.716614 29.096317 23.505350
243 0 3 0.053000 35.097965 28.340643 22.951807
244 0 2 0.248100 34.853802 28.613880 22.840212
245 0 3 0.053000 34.543129 28.560459 22.600643
246 0 3 0.053000 33.857590 28.300755 22.816570
247 0 3 0.053000 35.146858 28.284519 22.389601
248 0 2 0.248100 36.115120 29.766294 23.728672
249 0 3 0.053000 36.875847 30.381998 24.232500
250 0 3 0.053000 35.184242 29.657887 23.755043
251 0 3 0.053000 36.443348 29.635260 23.310532
252 0 4 -1.000000 38.525848 30.698910 24.697273
253 0 1 -0.628400 42.608170 29.358393 23.601763
254 0 2 0.248100 43.686577 30.099449 24.365065
255 0 3 0.053000 44.048893 30.156748 24.592922
256 0 3 0.053000 43.349052 30.405214 24.808844
257 0 3 0.053000 44.679466 30.437721 24.412809
258 0 2 0.248100 42.436531 28.955162 23.480925
259 0 3 0.053000 42.003262 29.046068 23.866264
260 0 3 0.053000 43.384872 29.096317 23.505350
261 0 3 0.053000 41.766228 28.340643 22.951807
262 0 2 0.248100 41.522064 28.613880 22.840212
263 0 3 0.053000 41.211388 28.560459 22.600643
264 0 3 0.053000 40.525848 28.300755 22.816570
265 0 3 0.053000 41.815121 28.284519 22.389601
266 0 2 0.248100 42.783379 29.766294 23.728672
267 0 3 0.053000 43.544106 30.381998 24.232500
268 0 3 0.053000 41.852505 29.657887 23.755043
269 0 3 0.053000 43.111610 29.635260 23.310532
270 0 4 -1.000000 45.194107 30.698910 24.697273
271 0 1 -0.628400 15.935127 33.772785 23.601763
272 0 2 0.248100 17.013531 34.513840 24.365065
273 0 3 0.053000 17.375849 34.571140 24.592922
274 0 3 0.053000 16.676008 34.819607 24.808844
275 0 3 0.053000 18.006420 34.852112 24.412809
276 0 2 0.248100 15.763485 33.369553 23.480925
277 0 3 0.053000 15.330217 33.460457 23.866264
278 0 3 0.053000 16.711830 33.510708 23.505350
279 0 3 0.053000 15.093182 32.755035 22.951807
280 0 2 0.248100 14.849018 33.028271 22.840212
281 0 3 0.053000 14.538346 32.974854 22.600643
282 0 3 0.053000 13.852804 32.715145 22.816570
283 0 3 0.053000 15.142076 32.698910 22.389601
284 0 2 0.248100 16.110336 34.180687 23.728672
285 0 3 0.053000 16.871061 34.796391 24.232500
286 0 3 0.053000 15.179461 34.072277 23.755043
287 0 3 0.053000 16.438564 34.049652 23.310532
288 0 4 -1.000000 18.521065 35.113304 24.697273
289 0 1 -0.628400 22.603388 33.772785 23.601763
290 0 2 0.248100 23.681793 34.513840 24.365065
291 0 3 0.053000 24.044109 34.571140 24.592922
292 0 3 0.053000 23.344269 34.819607 24.808844
293 0 3 0.053000 24.674683 34.852112 24.412809
294 0 2 0.248100 22.431746 33.369553 23.480925
295 0 3 0.053000 21.998478 33.460457 23.866264
296 0 3 0.053000 23.380091 33.510708 23.505350
297 0 3 0.053000 21.761444 32.755035 22.951807
298 0 2 0.248100 21.517279 33.028271 22.840212
299 0 3 0.053000 21.206608 32.974854 22.600643
300 0 3 0.053000 20.521065 32.715145 22.816570
301 0 3 0.053000 21.810337 32.698910 22.389601
302 0 2 0.248100 22.778599 34.180687 23.728672
303 0 3 0.053000 23.539322 34.796391 24.232500
304 0 3 0.053000 21.847721 34.072277 23.755043
305 0 3 0.053000 23.106827 34.049652 23.310532
306 0 4 -1.000000 25.189327 35.113304 24.697273
307 0 1 -0.628400 29.271648 33.772785 23.601763
308 0 2 0.248100 30.350054 34.513840 24.365065
309 0 3 0.053000 30.712370 34.571140 24.592922
310 0 3 0.053000 30.012531 34.819607 24.808844
311 0 3 0.053000 31.342943 34.852112 24.412809
312 0 2 0.248100 29.100006 33.369553 23.480925
313 0 3 0.053000 28.666740 33.460457 23.866264
314 0 3 0.053000 30.048351 33.510708 23.505350
315 0 3 0.053000 28.429705 32.755035 22.951807
316 0 2 0.248100 28.185539 33.028271 22.840212
317 0 3 0.053000 27.874868 32.974854 22.600643
318 0 3 0.053000 27.189327 32.715145 22.816570
319 0 3 0.053000 28.478598 32.698910 22.389601
320 0 2 0.248100 29.446859 34.180687 23.728672
321 0 3 0.053000 30.207582 34.796391 24.232500
322 0 3 0.053000 28.515984 34.072277 23.755043
323 0 3 0.053000 29.775087 34.049652 23.310532
324 0 4 -1.000000 31.857588 35.113304 24.697273
325 0 1 -0.628400 35.939911 33.772785 23.601763
326 0 2 0.248100 37.018314 34.513840 24.365065
327 0 3 0.053000 37.380630 34.571140 24.592922
328 0 3 0.053000 36.680794 34.819607 24.808844
329 0 3 0.053000 38.011208 34.852112 24.412809
330 0 2 0.248100 35.768269 33.369553 23.480925
331 0 3 0.053000 35.334999 33.460457 23.866264
332 0 3 0.053000 36.716614 33.510708 23.505350
333 0 3 0.053000 35.097965 32.755035 22.951807
334 0 2 0.248100 34.853802 33.028271 22.840212
335 0 3 0.053000 34.543129 32.974854 22.600643
336 0 3 0.053000 33.857590 32.715145 22.816570
337 0 3 0.053000 35.146858 32.698910 22.389601
338 0 2 0.248100 36.115120 34.180687 23.728672
339 0 3 0.053000 36.875847 34.796391 24.232500
340 0 3 0.053000 35.184242 34.072277 23.755043
341 0 3 0.053000 36.443348 34.049652 23.310532
342 0 4 -1.000000 38.525848 35.113304 24.697273
343 0 1 -0.628400 42.608170 33.772785 23.601763
344 0 2 0.248100 43.686577 34.513840 24.365065
345 0 3 0.053000 44.048893 34.571140 24.592922
346 0 3 0.053000 43.349052 34.819607 24.808844
347 0 3 0.053000 44.679466 34.852112 24.412809
348 0 2 0.248100 42.436531 33.369553 23.480925
349 0 3 0.053000 42.003262 33.460457 23.866264
350 0 3 0.053000 43.384872 33.510708 23.505350
351 0 3 0.053000 41.766228 32.755035 22.951807
352 0 2 0.248100 41.522064 33.028271 22.840212
353 0 3 0.053000 41.211388 32.974854 22.600643
354 0 3 0.053000 40.525848 32.715145 22.816570
355 0 3 0.053000 41.815121 32.698910 22.389601
356 0 2 0.248100 42.783379 34.180687 23.728672
357 0 3 0.053000 43.544106 34.796391 24.232500
358 0 3 0.053000 41.852505 34.072277 23.755043
359 0 3 0.053000 43.111610 34.049652 23.310532
360 0 4 -1.000000 45.194107 35.113304 24.697273
361 0 1 -0.628400 15.935127 38.187180 23.601763
362 0 2 0.248100 17.013531 38.928230 24.365065
363 0 3 0.053000 17.375849 38.985535 24.592922
364 0 3 0.053000 16.676008 39.234001 24.808844
365 0 3 0.053000 18.006420 39.266502 24.412809
366 0 2 0.248100 15.763485 37.783943 23.480925
367 0 3 0.053000 15.330217 37.874851 23.866264
368 0 3 0.053000 16.711830 37.925102 23.505350
369 0 3 0.053000 15.093182 37.169426 22.951807
370 0 2 0.248100 14.849018 37.442665 22.840212
371 0 3 0.053000 14.538346 37.389244 22.600643
372 0 3 0.053000 13.852804 37.129539 22.816570
373 0 3 0.053000 15.142076 37.113304 22.389601
374 0 2 0.248100 16.110336 38.595078 23.728672
375 0 3 0.053000 16.871061 39.210781 24.232500
376 0 3 0.053000 15.179461 38.486671 23.755043
377 0 3 0.053000 16.438564 38.464043 23.310532
378 0 4 -1.000000 18.521065 39.527695 24.697273
379 0 1 -0.628400 22.603388 38.187180 23.601763
380 0 2 0.248100 23.681793 38.928230 24.365065
381 0 3 0.053000 24.044109 38.985535 24.592922
382 0 3 0.053000 23.344269 39.234001 24.808844
383 0 3 0.053000 24.674683 39.266502 24.412809
384 0 2 0.248100 22.431746 37.783943 23.480925
385 0 3 0.053000 21.998478 37.874851 23.866264
386 0 3 0.053000 23.380091 37.925102 23.505350
387 0 3 0.053000 21.761444 37.169426 22.951807
388 0 2 0.248100 21.517279 37.442665 22.840212
389 0 3 0.053000 21.206608 37.389244 22.600643
390 0 3 0.053000 20.521065 37.129539 22.816570
391 0 3 0.053000 21.810337 37.113304 22.389601
392 0 2 0.248100 22.778599 38.595078 23.728672
393 0 3 0.053000 23.539322 39.210781 24.232500
394 0 3 0.053000 21.847721 38.486671 23.755043
395 0 3 0.053000 23.106827 38.464043 23.310532
396 0 4 -1.000000 25.189327 39.527695 24.697273
397 0 1 -0.628400 29.271648 38.187180 23.601763
398 0 2 0.248100 30.350054 38.928230 24.365065
399 0 3 0.053000 30.712370 38.985535 24.592922
400 0 3 0.053000 30.012531 39.234001 24.808844
401 0 3 0.053000 31.342943 39.266502 24.412809
402 0 2 0.248100 29.100006 37.783943 23.480925
403 0 3 0.053000 28.666740 37.874851 23.866264
404 0 3 0.053000 30.048351 37.925102 23.505350
405 0 3 0.053000 28.429705 37.169426 22.951807
406 0 2 0.248100 28.185539 37.442665 22.840212
407 0 3 0.053000 27.874868 37.389244 22.600643
408 0 3 0.053000 27.189327 37.129539 22.816570
409 0 3 0.053000 28.478598 37.113304 22.389601
410 0 2 0.248100 29.446859 38.595078 23.728672
411 0 3 0.053000 30.207582 39.210781 24.232500
412 0 3 0.053000 28.515984 38.486671 23.755043
413 0 3 0.053000 29.775087 38.464043 23.310532
414 0 4 -1.000000 31.857588 39.527695 24.697273
415 0 1 -0.628400 35.939911 38.187180 23.601763
416 0 2 0.248100 37.018314 38.928230 24.365065
417 0 3 0.053000 37.380630 38.985535 24.592922
418 0 3 0.053000 36.680794 39.234001 24.808844
419 0 3 0.053000 38.011208 39.266502 24.412809
420 0 2 0.248100 35.768269 37.783943 23.480925
421 0 3 0.053000 35.334999 37.874851 23.866264
422 0 3 0.053000 36.716614 37.925102 23.505350
423 0 3 0.053000 35.097965 37.169426 22.951807
424 0 2 0.248100 34.853802 37.442665 22.840212
425 0 3 0.053000 34.543129 37.389244 22.600643
426 0 3 0.053000 33.857590 37.129539 22.816570
427 0 3 0.053000 35.146858 37.113304 22.389601
428 0 2 0.248100 36.115120 38.595078 23.728672
429 0 3 0.053000 36.875847 39.210781 24.232500
430 0 3 0.053000 35.184242 38.486671 23.755043
431 0 3 0.053000 36.443348 38.464043 23.310532
432 0 4 -1.000000 38.525848 39.527695 24.697273
433 0 1 -0.628400 42.608170 38.187180 23.601763
434 0 2 0.248100 43.686577 38.928230 24.365065
435 0 3 0.053000 44.048893 38.985535 24.592922
436 0 3 0.053000 43.349052 39.234001 24.808844
437 0 3 0.053000 44.679466 39.266502 24.412809
438 0 2 0.248100 42.436531 37.783943 23.480925
439 0 3 0.053000 42.003262 37.874851 23.866264
440 0 3 0.053000 43.384872 37.925102 23.505350
441 0 3 0.053000 41.766228 37.169426 22.951807
442 0 2 0.248100 41.522064 37.442665 22.840212
443 0 3 0.053000 41.211388 37.389244 22.600643
444 0 3 0.053000 40.525848 37.129539 22.816570
445 0 3 0.053000 41.815121 37.113304 22.389601
446 0 2 0.248100 42.783379 38.595078 23.728672
447 0 3 0.053000 43.544106 39.210781 24.232500
448 0 3 0.053000 41.852505 38.486671 23.755043
449 0 3 0.053000 43.111610 38.464043 23.310532
450 0 4 -1.000000 45.194107 39.527695 24.697273
451 0 1 -0.628400 15.935127 20.529610 28.021006
452 0 2 0.248100 17.013531 21.270664 28.784307
453 0 3 0.053000 17.375849 21.327965 29.012165
454 0 3 0.053000 16.676008 21.576431 29.228085
455 0 3 0.053000 18.006420 21.608936 28.832050
456 0 2 0.248100 15.763485 20.126377 27.900166
457 0 3 0.053000 15.330217 20.217283 28.285507
458 0 3 0.053000 16.711830 20.267532 27.924591
459 0 3 0.053000 15.093182 19.511860 27.371050
460 0 2 0.248100 14.849018 19.785095 27.259453
461 0 3 0.053000 14.538346 19.731676 27.019886
462 0 3 0.053000 13.852804 19.471970 27.235813
463 0 3 0.053000 15.142076 19.455734 26.808844
464 0 2 0.248100 16.110336 20.937511 28.147915
465 0 3 0.053000 16.871061 21.553215 28.651741
466 0 3 0.053000 15.179461 20.829103 28.174286
467 0 3 0.053000 16.438564 20.806477 27.729774
468 0 4 -1.000000 18.521065 21.870127 29.116516
469 0 1 -0.628400 22.603388 20.529610 28.021006
470 0 2 0.248100 23.681793 21.270664 28.784307
471 0 3 0.053000 24.044109 21.327965 29.012165
472 0 3 0.053000 23.344269 21.576431 29.228085
473 0 3 0.053000 24.674683 21.608936 28.832050
474 0 2 0.248100 22.431746 20.126377 27.900166
475 0 3 0.053000 21.998478 20.217283 28.285507
476 0 3 0.053000 23.380091 20.267532 27.924591
477 0 3 0.053000 21.761444 19.511860 27.371050
478 0 2 0.248100 21.517279 19.785095 27.259453
479 0 3 0.053000 21.206608 19.731676 27.019886
480 0 3 0.053000 20.521065 19.471970 27.235813
481 0 3 0.053000 21.810337 19.455734 26.808844
482 0 2 0.248100 22.778599 20.937511 28.147915
483 0 3 0.053000 23.539322 21.553215 28.651741
484 0 3 0.053000 21.847721 20.829103 28.174286
485 0 3 0.053000 23.106827 20.806477 27.729774
486 0 4 -1.000000 25.189327 21.870127 29.116516
487 0 1 -0.628400 29.271648 20.529610 28.021006
488 0 2 0.248100 30.350054 21.270664 28.784307
489 0 3 0.053000 30.712370 21.327965 29.012165
490 0 3 0.053000 30.012531 21.576431 29.228085
491 0 3 0.053000 31.342943 21.608936 28.832050
492 0 2 0.248100 29.100006 20.126377 27.900166
493 0 3 0.053000 28.666740 20.217283 28.285507
494 0 3 0.053000 30.048351 20.267532 27.924591
495 0 3 0.053000 28.429705 19.511860 27.371050
496 0 2 0.248100 28.185539 19.785095 27.259453
497 0 3 0.053000 27.874868 19.731676 27.019886
498 0 3 0.053000 27.189327 19.471970 27.235813
499 0 3 0.053000 28.478598 19.455734 26.808844
500 0 2 0.248100 29.446859 20.937511 28.147915
501 0 3 0.053000 30.207582 21.553215 28.651741
502 0 3 0.053000 28.515984 20.829103 28.174286
503 0 3 0.053000 29.775087 20.806477 27.729774
504 0 4 -1.000000 31.857588 21.870127 29.116516
505 0 1 -0.628400 35.939911 20.529610 28.021006
506 0 2 0.248100 37.018314 21.270664 28.784307
507 0 3 0.053000 37.380630 21.327965 29.012165
508 0 3 0.053000 36.680794 21.576431 29.228085
509 0 3 0.053000 38.011208 21.608936 28.832050
510 0 2 0.248100 35.768269 20.126377 27.900166
511 0 3 0.053000 35.334999 20.217283 28.285507
512 0 3 0.053000 36.716614 20.267532 27.924591
513 0 3 0.053000 35.097965 19.511860 27.371050
514 0 2 0.248100 34.853802 19.785095 27.259453
515 0 3 0.053000 34.543129 19.731676 27.019886
516 0 3 0.053000 33.857590 19.471970 27.235813
517 0 3 0.053000 35.146858 19.455734 26.808844
518 0 2 0.248100 36.115120 20.937511 28.147915
519 0 3 0.053000 36.875847 21.553215 28.651741
520 0 3 0.053000 35.184242 20.829103 28.174286
521 0 3 0.053000 36.443348 20.806477 27.729774
522 0 4 -1.000000 38.525848 21.870127 29.116516
523 0 1 -0.628400 42.608170 20.529610 28.021006
524 0 2 0.248100 43.686577 21.270664 28.784307
525 0 3 0.053000 44.048893 21.327965 29.012165
526 0 3 0.053000 43.349052 21.576431 29.228085
527 0 3 0.053000 44.679466 21.608936 28.832050
528 0 2 0.248100 42.436531 20.126377 27.900166
529 0 3 0.053000 42.003262 20.217283 28.285507
530 0 3 0.053000 43.384872 20.267532 27.924591
531 0 3 0.053000 41.766228 19.511860 27.371050
532 0 2 0.248100 41.522064 19.785095 27.259453
533 0 3 0.053000 41.211388 19.731676 27.019886
534 0 3 0.053000 40.525848 19.471970 27.235813
535 0 3 0.053000 41.815121 19.455734 26.808844
536 0 2 0.248100 42.783379 20.937511 28.147915
537 0 3 0.053000 43.544106 21.553215 28.651741
538 0 3 0.053000 41.852505 20.829103 28.174286
539 0 3 0.053000 43.111610 20.806477 27.729774
540 0 4 -1.000000 45.194107 21.870127 29.116516
541 0 1 -0.628400 15.935127 24.944000 28.021006
542 0 2 0.248100 17.013531 25.685057 28.784307
543 0 3 0.053000 17.375849 25.742355 29.012165
544 0 3 0.053000 16.676008 25.990822 29.228085
545 0 3 0.053000 18.006420 26.023329 28.832050
546 0 2 0.248100 15.763485 24.540770 27.900166
547 0 3 0.053000 15.330217 24.631676 28.285507
548 0 3 0.053000 16.711830 24.681923 27.924591
549 0 3 0.053000 15.093182 23.926250 27.371050
550 0 2 0.248100 14.849018 24.199488 27.259453
551 0 3 0.053000 14.538346 24.146069 27.019886
552 0 3 0.053000 13.852804 23.886362 27.235813
553 0 3 0.053000 15.142076 23.870127 26.808844
554 0 2 0.248100 16.110336 25.351902 28.147915
555 0 3 0.053000 16.871061 25.967606 28.651741
556 0 3 0.053000 15.179461 25.243496 28.174286
557 0 3 0.053000 16.438564 25.220867 27.729774
558 0 4 -1.000000 18.521065 26.284519 29.116516
559 0 1 -0.628400 22.603388 24.944000 28.021006
560 0 2 0.248100 23.681793 25.685057 28.784307
561 0 3 0.053000 24.044109 25.742355 29.012165
562 0 3 0.053000 23.344269 25.990822 29.228085
563 0 3 0.053000 24.674683 26.023329 28.832050
564 0 2 0.248100 22.431746 24.540770 27.900166
565 0 3 0.053000 21.998478 24.631676 28.285507
566 0 3 0.053000 23.380091 24.681923 27.924591
567 0 3 0.053000 21.761444 23.926250 27.371050
568 0 2 0.248100 21.517279 24.199488 27.259453
569 0 3 0.053000 21.206608 24.146069 27.019886
570 0 3 0.053000 20.521065 23.886362 27.235813
571 0 3 0.053000 21.810337 23.870127 26.808844
572 0 2 0.248100 22.778599 25.351902 28.147915
573 0 3 0.053000 23.539322 25.967606 28.651741
574 0 3 0.053000 21.847721 25.243496 28.174286
575 0 3 0.053000 23.106827 25.220867 27.729774
576 0 4 -1.000000 25.189327 26.284519 29.116516
577 0 1 -0.628400 29.271648 24.944000 28.021006
578 0 2 0.248100 30.350054 25.685057 28.784307
579 0 3 0.053000 30.712370 25.742355 29.012165
580 0 3 0.053000 30.012531 25.990822 29.228085
581 0 3 0.053000 31.342943 26.023329 28.832050
582 0 2 0.248100 29.100006 24.540770 27.900166
583 0 3 0.053000 28.666740 24.631676 28.285507
584 0 3 0.053000 30.048351 24.681923 27.924591
585 0 3 0.053000 28.429705 23.926250 27.371050
586 0 2 0.248100 28.185539 24.199488 27.259453
587 0 3 0.053000 27.874868 24.146069 27.019886
588 0 3 0.053000 27.189327 23.886362 27.235813
589 0 3 0.053000 28.478598 23.870127 26.808844
590 0 2 0.248100 29.446859 25.351902 28.147915
591 0 3 0.053000 30.207582 25.967606 28.651741
592 0 3 0.053000 28.515984 25.243496 28.174286
593 0 3 0.053000 29.775087 25.220867 27.729774
594 0 4 -1.000000 31.857588 26.284519 29.116516
595 0 1 -0.628400 35.939911 24.944000 28.021006
596 0 2 0.248100 37.018314 25.685057 28.784307
597 0 3 0.053000 37.380630 25.742355 29.012165
598 0 3 0.053000 36.680794 25.990822 29.228085
599 0 3 0.053000 38.011208 26.023329 28.832050
600 0 2 0.248100 35.768269 24.540770 27.900166
601 0 3 0.053000 35.334999 24.631676 28.285507
602 0 3 0.053000 36.716614 24.681923 27.924591
603 0 3 0.053000 35.097965 23.926250 27.371050
604 0 2 0.248100 34.853802 24.199488 27.259453
605 0 3 0.053000 34.543129 24.146069 27.019886
606 0 3 0.053000 33.857590 23.886362 27.235813
607 0 3 0.053000 35.146858 23.870127 26.808844
608 0 2 0.248100 36.115120 25.351902 28.147915
609 0 3 0.053000 36.875847 25.967606 28.651741
610 0 3 0.053000 35.184242 25.243496 28.174286
611 0 3 0.053000 36.443348 25.220867 27.729774
612 0 4 -1.000000 38.525848 26.284519 29.116516
613 0 1 -0.628400 42.608170 24.944000 28.021006
614 0 2 0.248100 43.686577 25.685057 28.784307
615 0 3 0.053000 44.048893 25.742355 29.012165
616 0 3 0.053000 43.349052 25.990822 29.228085
617 0 3 0.053000 44.679466 26.023329 28.832050
618 0 2 0.248100 42.436531 24.540770 27.900166
619 0 3 0.053000 42.003262 24.631676 28.285507
620 0 3 0.053000 43.384872 24.681923 27.924591
621 0 3 0.053000 41.766228 23.926250 27.371050
622 0 2 0.248100 41.522064 24.199488 27.259453
623 0 3 0.053000 41.211388 24.146069 27.019886
624 0 3 0.053000 40.525848 23.886362 27.235813
625 0 3 0.053000 41.815121 23.870127 26.808844
626 0 2 0.248100 42.783379 25.351902 28.147915
627 0 3 0.053000 43.544106 25.967606 28.651741
628 0 3 0.053000 41.852505 25.243496 28.174286
629 0 3 0.053000 43.111610 25.220867 27.729774
630 0 4 -1.000000 45.194107 26.284519 29.116516
631 0 1 -0.628400 15.935127 29.358393 28.021006