LAMMPS data file containing the original structures and the polarizable gold

7830 atoms
4265 bonds
1500 angles
1800 dihedrals
0 impropers

6 atom types
3 bond types
3 angle types
1 dihedral types

-3.000000 62.014999 xlo xhi
-3.000000 61.997501 ylo yhi
-3.000000 41.066570 zlo zhi

Masses

1 14.006700
2 12.011150
3 1.007970
4 79.908997
5 195.960000
6 1.000000

Atoms

1 0 1 -0.628400 19.535973 23.001698 23.601763
2 0 2 0.248100 20.614376 23.742752 24.365065
3 0 3 0.053000 20.976694 23.800053 24.592922
4 0 3 0.053000 20.276854 24.048519 24.808844
5 0 3 0.053000 21.607265 24.081024 24.412809
6 0 2 0.248100 19.364330 22.598465 23.480925
7 0 3 0.053000 18.931063 22.689371 23.866264
8 0 3 0.053000 20.312675 22.739620 23.505350
9 0 3 0.053000 18.694027 21.983948 22.951807
10 0 2 0.248100 18.449863 22.257183 22.840212
11 0 3 0.053000 18.139191 22.203764 22.600643
12 0 3 0.053000 17.453650 21.944057 22.816570
13 0 3 0.053000 18.742922 21.927822 22.389601
14 0 2 0.248100 19.711182 23.409599 23.728672
15 0 3 0.053000 20.471907 24.025303 24.232500
16 0 3 0.053000 18.780306 23.301191 23.755043
17 0 3 0.053000 20.039410 23.278564 23.310532
18 0 4 -1.000000 22.121910 24.342215 24.697273
19 0 1 -0.628400 26.204233 23.001698 23.601763
20 0 2 0.248100 27.282639 23.742752 24.365065
21 0 3 0.053000 27.644955 23.800053 24.592922
22 0 3 0.053000 26.945114 24.048519 24.808844
23 0 3 0.053000 28.275528 24.081024 24.412809
24 0 2 0.248100 26.032591 22.598465 23.480925
25 0 3 0.053000 25.599323 22.689371 23.866264
26 0 3 0.053000 26.980936 22.739620 23.505350
27 0 3 0.053000 25.362289 21.983948 22.951807
28 0 2 0.248100 25.118124 22.257183 22.840212
29 0 3 0.053000 24.807453 22.203764 22.600643
30 0 3 0.053000 24.121910 21.944057 22.816570
31 0 3 0.053000 25.411182 21.927822 22.389601
32 0 2 0.248100 26.379444 23.409599 23.728672
33 0 3 0.053000 27.140167 24.025303 24.232500
34 0 3 0.053000 25.448566 23.301191 23.755043
35 0 3 0.053000 26.707672 23.278564 23.310532
36 0 4 -1.000000 28.790173 24.342215 24.697273
37 0 1 -0.628400 32.872494 23.001698 23.601763
38 0 2 0.248100 33.950897 23.742752 24.365065
39 0 3 0.053000 34.313217 23.800053 24.592922
40 0 3 0.053000 33.613377 24.048519 24.808844
41 0 3 0.053000 34.943787 24.081024 24.412809
42 0 2 0.248100 32.700851 22.598465 23.480925
43 0 3 0.053000 32.267586 22.689371 23.866264
44 0 3 0.053000 33.649197 22.739620 23.505350
45 0 3 0.053000 32.030548 21.983948 22.951807
46 0 2 0.248100 31.786385 22.257183 22.840212
47 0 3 0.053000 31.475714 22.203764 22.600643
48 0 3 0.053000 30.790173 21.944057 22.816570
49 0 3 0.053000 32.079445 21.927822 22.389601
50 0 2 0.248100 33.047707 23.409599 23.728672
51 0 3 0.053000 33.808426 24.025303 24.232500
52 0 3 0.053000 32.116829 23.301191 23.755043
53 0 3 0.053000 33.375931 23.278564 23.310532
54 0 4 -1.000000 35.458435 24.342215 24.697273
55 0 1 -0.628400 39.540756 23.001698 23.601763
56 0 2 0.248100 40.619160 23.742752 24.365065
57 0 3 0.053000 40.981476 23.800053 24.592922
58 0 3 0.053000 40.281639 24.048519 24.808844
59 0 3 0.053000 41.612053 24.081024 24.412809
60 0 2 0.248100 39.369114 22.598465 23.480925
61 0 3 0.053000 38.935844 22.689371 23.866264
62 0 3 0.053000 40.317459 22.739620 23.505350
63 0 3 0.053000 38.698811 21.983948 22.951807
64 0 2 0.248100 38.454647 22.257183 22.840212
65 0 3 0.053000 38.143974 22.203764 22.600643
66 0 3 0.053000 37.458435 21.944057 22.816570
67 0 3 0.053000 38.747704 21.927822 22.389601
68 0 2 0.248100 39.715965 23.409599 23.728672
69 0 3 0.053000 40.476692 24.025303 24.232500
70 0 3 0.053000 38.785088 23.301191 23.755043
71 0 3 0.053000 40.044193 23.278564 23.310532
72 0 4 -1.000000 42.126694 24.342215 24.697273
73 0 1 -0.628400 19.535973 27.416088 23.601763
74 0 2 0.248100 20.614376 28.157145 24.365065
75 0 3 0.053000 20.976694 28.214443 24.592922
76 0 3 0.053000 20.276854 28.462910 24.808844
77 0 3 0.053000 21.607265 28.495417 24.412809
78 0 2 0.248100 19.364330 27.012857 23.480925
79 0 3 0.053000 18.931063 27.103764 23.866264
80 0 3 0.053000 20.312675 27.154011 23.505350
81 0 3 0.053000 18.694027 26.398338 22.951807
82 0 2 0.248100 18.449863 26.671576 22.840212
83 0 3 0.053000 18.139191 26.618156 22.600643
84 0 3 0.053000 17.453650 26.358450 22.816570
85 0 3 0.053000 18.742922 26.342215 22.389601
86 0 2 0.248100 19.711182 27.823990 23.728672
87 0 3 0.053000 20.471907 28.439693 24.232500
88 0 3 0.053000 18.780306 27.715584 23.755043
89 0 3 0.053000 20.039410 27.692955 23.310532
90 0 4 -1.000000 22.121910 28.756607 24.697273
91 0 1 -0.628400 26.204233 27.416088 23.601763
92 0 2 0.248100 27.282639 28.157145 24.365065
93 0 3 0.053000 27.644955 28.214443 24.592922
94 0 3 0.053000 26.945114 28.462910 24.808844
95 0 3 0.053000 28.275528 28.495417 24.412809
96 0 2 0.248100 26.032591 27.012857 23.480925
97 0 3 0.053000 25.599323 27.103764 23.866264
98 0 3 0.053000 26.980936 27.154011 23.505350
99 0 3 0.053000 25.362289 26.398338 22.951807
100 0 2 0.248100 25.118124 26.671576 22.840212
101 0 3 0.053000 24.807453 26.618156 22.600643
102 0 3 0.053000 24.121910 26.358450 22.816570
103 0 3 0.053000 25.411182 26.342215 22.389601
104 0 2 0.248100 26.379444 27.823990 23.728672
105 0 3 0.053000 27.140167 28.439693 24.232500
106 0 3 0.053000 25.448566 27.715584 23.755043
107 0 3 0.053000 26.707672 27.692955 23.310532
108 0 4 -1.000000 28.790173 28.756607 24.697273
109 0 1 -0.628400 32.872494 27.416088 23.601763
110 0 2 0.248100 33.950897 28.157145 24.365065
111 0 3 0.053000 34.313217 28.214443 24.592922
112 0 3 0.053000 33.613377 28.462910 24.808844
113 0 3 0.053000 34.943787 28.495417 24.412809
114 0 2 0.248100 32.700851 27.012857 23.480925
115 0 3 0.053000 32.267586 27.103764 23.866264
116 0 3 0.053000 33.649197 27.154011 23.505350
117 0 3 0.053000 32.030548 26.398338 22.951807
118 0 2 0.248100 31.786385 26.671576 22.840212
119 0 3 0.053000 31.475714 26.618156 22.600643
120 0 3 0.053000 30.790173 26.358450 22.816570
121 0 3 0.053000 32.079445 26.342215 22.389601
122 0 2 0.248100 33.047707 27.823990 23.728672
123 0 3 0.053000 33.808426 28.439693 24.232500
124 0 3 0.053000 32.116829 27.715584 23.755043
125 0 3 0.053000 33.375931 27.692955 23.310532
126 0 4 -1.000000 35.458435 28.756607 24.697273
127 0 1 -0.628400 39.540756 27.416088 23.601763
128 0 2 0.248100 40.619160 28.157145 24.365065
129 0 3 0.053000 40.981476 28.214443 24.592922
130 0 3 0.053000 40.281639 28.462910 24.808844
131 0 3 0.053000 41.612053 28.495417 24.412809
132 0 2 0.248100 39.369114 27.012857 23.480925
133 0 3 0.053000 38.935844 27.103764 23.866264
134 0 3 0.053000 40.317459 27.154011 23.505350
135 0 3 0.053000 38.698811 26.398338 22.951807
136 0 2 0.248100 38.454647 26.671576 22.840212
137 0 3 0.053000 38.143974 26.618156 22.600643
138 0 3 0.053000 37.458435 26.358450 22.816570
139 0 3 0.053000 38.747704 26.342215 22.389601
140 0 2 0.248100 39.715965 27.823990 23.728672
141 0 3 0.053000 40.476692 28.439693 24.232500
142 0 3 0.053000 38.785088 27.715584 23.755043
143 0 3 0.053000 40.044193 27.692955 23.310532
144 0 4 -1.000000 42.126694 28.756607 24.697273
145 0 1 -0.628400 19.535973 31.830481 23.601763
146 0 2 0.248100 20.614376 32.571537 24.365065
147 0 3 0.053000 20.976694 32.628838 24.592922
148 0 3 0.053000 20.276854 32.877304 24.808844
149 0 3 0.053000 21.607265 32.909809 24.412809
150 0 2 0.248100 19.364330 31.427250 23.480925
151 0 3 0.053000 18.931063 31.518156 23.866264
152 0 3 0.053000 20.312675 31.568405 23.505350
153 0 3 0.053000 18.694027 30.812731 22.951807
154 0 2 0.248100 18.449863 31.085968 22.840212
155 0 3 0.053000 18.139191 31.032547 22.600643
156 0 3 0.053000 17.453650 30.772842 22.816570
157 0 3 0.053000 18.742922 30.756607 22.389601
158 0 2 0.248100 19.711182 32.238380 23.728672
159 0 3 0.053000 20.471907 32.854088 24.232500
160 0 3 0.053000 18.780306 32.129974 23.755043
161 0 3 0.053000 20.039410 32.107346 23.310532
162 0 4 -1.000000 22.121910 33.170998 24.697273
163 0 1 -0.628400 26.204233 31.830481 23.601763
164 0 2 0.248100 27.282639 32.571537 24.365065
165 0 3 0.053000 27.644955 32.628838 24.592922
166 0 3 0.053000 26.945114 32.877304 24.808844
167 0 3 0.053000 28.275528 32.909809 24.412809
168 0 2 0.248100 26.032591 31.427250 23.480925
169 0 3 0.053000 25.599323 31.518156 23.866264
170 0 3 0.053000 26.980936 31.568405 23.505350
171 0 3 0.053000 25.362289 30.812731 22.951807
172 0 2 0.248100 25.118124 31.085968 22.840212
173 0 3 0.053000 24.807453 31.032547 22.600643
174 0 3 0.053000 24.121910 30.772842 22.816570
175 0 3 0.053000 25.411182 30.756607 22.389601
176 0 2 0.248100 26.379444 32.238380 23.728672
177 0 3 0.053000 27.140167 32.854088 24.232500
178 0 3 0.053000 25.448566 32.129974 23.755043
179 0 3 0.053000 26.707672 32.107346 23.310532
180 0 4 -1.000000 28.790173 33.170998 24.697273
181 0 1 -0.628400 32.872494 31.830481 23.601763
182 0 2 0.248100 33.950897 32.571537 24.365065
183 0 3 0.053000 34.313217 32.628838 24.592922
184 0 3 0.053000 33.613377 32.877304 24.808844
185 0 3 0.053000 34.943787 32.909809 24.412809
186 0 2 0.248100 32.700851 31.427250 23.480925
187 0 3 0.053000 32.267586 31.518156 23.866264
188 0 3 0.053000 33.649197 31.568405 23.505350
189 0 3 0.053000 32.030548 30.812731 22.951807
190 0 2 0.248100 31.786385 31.085968 22.840212
191 0 3 0.053000 31.475714 31.032547 22.600643
192 0 3 0.053000 30.790173 30.772842 22.816570
193 0 3 0.053000 32.079445 30.756607 22.389601
194 0 2 0.248100 33.047707 32.238380 23.728672
195 0 3 0.053000 33.808426 32.854088 24.232500
196 0 3 0.053000 32.116829 32.129974 23.755043
197 0 3 0.053000 33.375931 32.107346 23.310532
198 0 4 -1.000000 35.458435 33.170998 24.697273
199 0 1 -0.628400 39.540756 31.830481 23.601763
200 0 2 0.248100 40.619160 32.571537 24.365065
201 0 3 0.053000 40.981476 32.628838 24.592922
202 0 3 0.053000 40.281639 32.877304 24.808844
203 0 3 0.053000 41.612053 32.909809 24.412809
204 0 2 0.248100 39.369114 31.427250 23.480925
205 0 3 0.053000 38.935844 31.518156 23.866264
206 0 3 0.053000 40.317459 31.568405 23.505350
207 0 3 0.053000 38.698811 30.812731 22.951807
208 0 2 0.248100 38.454647 31.085968 22.840212
209 0 3 0.053000 38.143974 31.032547 22.600643
210 0 3 0.053000 37.458435 30.772842 22.816570
211 0 3 0.053000 38.747704 30.756607 22.389601
212 0 2 0.248100 39.715965 32.238380 23.728672
213 0 3 0.053000 40.476692 32.854088 24.232500
214 0 3 0.053000 38.785088 32.129974 23.755043
215 0 3 0.053000 40.044193 32.107346 23.310532
216 0 4 -1.000000 42.126694 33.170998 24.697273
217 0 1 -0.628400 19.535973 36.244873 23.601763
218 0 2 0.248100 20.614376 36.985928 24.365065
219 0 3 0.053000 20.976694 37.043228 24.592922
220 0 3 0.053000 20.276854 37.291695 24.808844
221 0 3 0.053000 21.607265 37.324200 24.412809
222 0 2 0.248100 19.364330 35.841640 23.480925
223 0 3 0.053000 18.931063 35.932549 23.866264
224 0 3 0.053000 20.312675 35.982796 23.505350
225 0 3 0.053000 18.694027 35.227123 22.951807
226 0 2 0.248100 18.449863 35.500359 22.840212
227 0 3 0.053000 18.139191 35.446938 22.600643
228 0 3 0.053000 17.453650 35.187233 22.816570
229 0 3 0.053000 18.742922 35.170998 22.389601
230 0 2 0.248100 19.711182 36.652775 23.728672
231 0 3 0.053000 20.471907 37.268478 24.232500
232 0 3 0.053000 18.780306 36.544365 23.755043
233 0 3 0.053000 20.039410 36.521740 23.310532
234 0 4 -1.000000 22.121910 37.585388 24.697273
235 0 1 -0.628400 26.204233 36.244873 23.601763
236 0 2 0.248100 27.282639 36.985928 24.365065
237 0 3 0.053000 27.644955 37.043228 24.592922
238 0 3 0.053000 26.945114 37.291695 24.808844
239 0 3 0.053000 28.275528 37.324200 24.412809
240 0 2 0.248100 26.032591 35.841640 23.480925
241 0 3 0.053000 25.599323 35.932549 23.866264
242 0 3 0.053000 26.980936 35.982796 23.505350
243 0 3 0.053000 25.362289 35.227123 22.951807
244 0 2 0.248100 25.118124 35.500359 22.840212
245 0 3 0.053000 24.807453 35.446938 22.600643
246 0 3 0.053000 24.121910 35.187233 22.816570
247 0 3 0.053000 25.411182 35.170998 22.389601
248 0 2 0.248100 26.379444 36.652775 23.728672
249 0 3 0.053000 27.140167 37.268478 24.232500
250 0 3 0.053000 25.448566 36.544365 23.755043
251 0 3 0.053000 26.707672 36.521740 23.310532
252 0 4 -1.000000 28.790173 37.585388 24.697273
253 0 1 -0.628400 32.872494 36.244873 23.601763
254 0 2 0.248100 33.950897 36.985928 24.365065
255 0 3 0.053000 34.313217 37.043228 24.592922
256 0 3 0.053000 33.613377 37.291695 24.808844
257 0 3 0.053000 34.943787 37.324200 24.412809
258 0 2 0.248100 32.700851 35.841640 23.480925
259 0 3 0.053000 32.267586 35.932549 23.866264
260 0 3 0.053000 33.649197 35.982796 23.505350
261 0 3 0.053000 32.030548 35.227123 22.951807
262 0 2 0.248100 31.786385 35.500359 22.840212
263 0 3 0.053000 31.475714 35.446938 22.600643
264 0 3 0.053000 30.790173 35.187233 22.816570
265 0 3 0.053000 32.079445 35.170998 22.389601
266 0 2 0.248100 33.047707 36.652775 23.728672
267 0 3 0.053000 33.808426 37.268478 24.232500
268 0 3 0.053000 32.116829 36.544365 23.755043
269 0 3 0.053000 33.375931 36.521740 23.310532
270 0 4 -1.000000 35.458435 37.585388 24.697273
271 0 1 -0.628400 39.540756 36.244873 23.601763
272 0 2 0.248100 40.619160 36.985928 24.365065
273 0 3 0.053000 40.981476 37.043228 24.592922
274 0 3 0.053000 40.281639 37.291695 24.808844
275 0 3 0.053000 41.612053 37.324200 24.412809
276 0 2 0.248100 39.369114 35.841640 23.480925
277 0 3 0.053000 38.935844 35.932549 23.866264
278 0 3 0.053000 40.317459 35.982796 23.505350
279 0 3 0.053000 38.698811 35.227123 22.951807
280 0 2 0.248100 38.454647 35.500359 22.840212
281 0 3 0.053000 38.143974 35.446938 22.600643
282 0 3 0.053000 37.458435 35.187233 22.816570
283 0 3 0.053000 38.747704 35.170998 22.389601
284 0 2 0.248100 39.715965 36.652775 23.728672
285 0 3 0.053000 40.476692 37.268478 24.232500
286 0 3 0.053000 38.785088 36.544365 23.755043
287 0 3 0.053000 40.044193 36.521740 23.310532
288 0 4 -1.000000 42.126694 37.585388 24.697273
289 0 1 -0.628400 19.535973 23.001698 28.021006
290 0 2 0.248100 20.614376 23.742752 28.784307
291 0 3 0.053000 20.976694 23.800053 29.012165
292 0 3 0.053000 20.276854 24.048519 29.228085
293 0 3 0.053000 21.607265 24.081024 28.832050
294 0 2 0.248100 19.364330 22.598465 27.900166
295 0 3 0.053000 18.931063 22.689371 28.285507
296 0 3 0.053000 20.312675 22.739620 27.924591
297 0 3 0.053000 18.694027 21.983948 27.371050
298 0 2 0.248100 18.449863 22.257183 27.259453
299 0 3 0.053000 18.139191 22.203764 27.019886
300 0 3 0.053000 17.453650 21.944057 27.235813
301 0 3 0.053000 18.742922 21.927822 26.808844
302 0 2 0.248100 19.711182 23.409599 28.147915
303 0 3 0.053000 20.471907 24.025303 28.651741
304 0 3 0.053000 18.780306 23.301191 28.174286
305 0 3 0.053000 20.039410 23.278564 27.729774
306 0 4 -1.000000 22.121910 24.342215 29.116516
307 0 1 -0.628400 26.204233 23.001698 28.021006
308 0 2 0.248100 27.282639 23.742752 28.784307
309 0 3 0.053000 27.644955 23.800053 29.012165
310 0 3 0.053000 26.945114 24.048519 29.228085
311 0 3 0.053000 28.275528 24.081024 28.832050
312 0 2 0.248100 26.032591 22.598465 27.900166
313 0 3 0.053000 25.599323 22.689371 28.285507
314 0 3 0.053000 26.980936 22.739620 27.924591
315 0 3 0.053000 25.362289 21.983948 27.371050
316 0 2 0.248100 25.118124 22.257183 27.259453
317 0 3 0.053000 24.807453 22.203764 27.019886
318 0 3 0.053000 24.121910 21.944057 27.235813
319 0 3 0.053000 25.411182 21.927822 26.808844
320 0 2 0.248100 26.379444 23.409599 28.147915
321 0 3 0.053000 27.140167 24.025303 28.651741
322 0 3 0.053000 25.448566 23.301191 28.174286
323 0 3 0.053000 26.707672 23.278564 27.729774
324 0 4 -1.000000 28.790173 24.342215 29.116516
325 0 1 -0.628400 32.872494 23.001698 28.021006
326 0 2 0.248100 33.950897 23.742752 28.784307
327 0 3 0.053000 34.313217 23.800053 29.012165
328 0 3 0.053000 33.613377 24.048519 29.228085
329 0 3 0.053000 34.943787 24.081024 28.832050
330 0 2 0.248100 32.700851 22.598465 27.900166
331 0 3 0.053000 32.267586 22.689371 28.285507
332 0 3 0.053000 33.649197 22.739620 27.924591
333 0 3 0.053000 32.030548 21.983948 27.371050
334 0 2 0.248100 31.786385 22.257183 27.259453
335 0 3 0.053000 31.475714 22.203764 27.019886
336 0 3 0.053000 30.790173 21.944057 27.235813
337 0 3 0.053000 32.079445 21.927822 26.808844
338 0 2 0.248100 33.047707 23.409599 28.147915
339 0 3 0.053000 33.808426 24.025303 28.651741
340 0 3 0.053000 32.116829 23.301191 28.174286
341 0 3 0.053000 33.375931 23.278564 27.729774
342 0 4 -1.000000 35.458435 24.342215 29.116516
343 0 1 -0.628400 39.540756 23.001698 28.021006
344 0 2 0.248100 40.619160 23.742752 28.784307
345 0 3 0.053000 40.981476 23.800053 29.012165
346 0 3 0.053000 40.281639 24.048519 29.228085
347 0 3 0.053000 41.612053 24.081024 28.832050
348 0 2 0.248100 39.369114 22.598465 27.900166
349 0 3 0.053000 38.935844 22.689371 28.285507
350 0 3 0.053000 40.317459 22.739620 27.924591
351 0 3 0.053000 38.698811 21.983948 27.371050
352 0 2 0.248100 38.454647 22.257183 27.259453
353 0 3 0.053000 38.143974 22.203764 27.019886
354 0 3 0.053000 37.458435 21.944057 27.235813
355 0 3 0.053000 38.747704 21.927822 26.808844
356 0 2 0.248100 39.715965 23.409599 28.147915
357 0 3 0.053000 40.476692 24.025303 28.651741
358 0 3 0.053000 38.785088 23.301191 28.174286
359 0 3 0.053000 40.044193 23.278564 27.729774
360 0 4 -1.000000 42.126694 24.342215 29.116516
361 0 1 -0.628400 19.535973 27.416088 28.021006
362 0 2 0.248100 20.614376 28.157145 28.784307
363 0 3 0.053000 20.976694 28.214443 29.012165
364 0 3 0.053000 20.276854 28.462910 29.228085
365 0 3 0.053000 21.607265 28.495417 28.832050
366 0 2 0.248100 19.364330 27.012857 27.900166
367 0 3 0.053000 18.931063 27.103764 28.285507
368 0 3 0.053000 20.312675 27.154011 27.924591
369 0 3 0.053000 18.694027 26.398338 27.371050
370 0 2 0.248100 18.449863 26.671576 27.259453
371 0 3 0.053000 18.139191 26.618156 27.019886
372 0 3 0.053000 17.453650 26.358450 27.235813
373 0 3 0.053000 18.742922 26.342215 26.808844
374 0 2 0.248100 19.711182 27.823990 28.147915
375 0 3 0.053000 20.471907 28.439693 28.651741
376 0 3 0.053000 18.780306 27.715584 28.174286
377 0 3 0.053000 20.039410 27.692955 27.729774
378 0 4 -1.000000 22.121910 28.756607 29.116516
379 0 1 -0.628400 26.204233 27.416088 28.021006
380 0 2 0.248100 27.282639 28.157145 28.784307
381 0 3 0.053000 27.644955 28.214443 29.012165
382 0 3 0.053000 26.945114 28.462910 29.228085
383 0 3 0.053000 28.275528 28.495417 28.832050
384 0 2 0.248100 26.032591 27.012857 27.900166
385 0 3 0.053000 25.599323 27.103764 28.285507
386 0 3 0.053000 26.980936 27.154011 27.924591
387 0 3 0.053000 25.362289 26.398338 27.371050
388 0 2 0.248100 25.118124 26.671576 27.259453
389 0 3 0.053000 24.807453 26.618156 27.019886
390 0 3 0.053000 24.121910 26.358450 27.235813
391 0 3 0.053000 25.411182 26.342215 26.808844
392 0 2 0.248100 26.379444 27.823990 28.147915
393 0 3 0.053000 27.140167 28.439693 28.651741
394 0 3 0.053000 25.448566 27.715584 28.174286
395 0 3 0.053000 26.707672 27.692955 27.729774
396 0 4 -1.000000 28.790173 28.756607 29.116516
397 0 1 -0.628400 32.872494 27.416088 28.021006
398 0 2 0.248100 33.950897 28.157145 28.784307
399 0 3 0.053000 34.313217 28.214443 29.012165
400 0 3 0.053000 33.613377 28.462910 29.228085
401 0 3 0.053000 34.943787 28.495417 28.832050
402 0 2 0.248100 32.700851 27.012857 27.900166
403 0 3 0.053000 32.267586 27.103764 28.285507
404 0 3 0.053000 33.649197 27.154011 27.924591
405 0 3 0.053000 32.030548 26.398338 27.371050
406 0 2 0.248100 31.786385 26.671576 27.259453
407 0 3 0.053000 31.475714 26.618156 27.019886
408 0 3 0.053000 30.790173 26.358450 27.235813
409 0 3 0.053000 32.079445 26.342215 26.808844
410 0 2 0.248100 33.047707 27.823990 28.147915
411 0 3 0.053000 33.808426 28.439693 28.651741
412 0 3 0.053000 32.116829 27.715584 28.174286
413 0 3 0.053000 33.375931 27.692955 27.729774
414 0 4 -1.000000 35.458435 28.756607 29.116516
415 0 1 -0.628400 39.540756 27.416088 28.021006
416 0 2 0.248100 40.619160 28.157145 28.784307
417 0 3 0.053000 40.981476 28.214443 29.012165
418 0 3 0.053000 40.281639 28.462910 29.228085
419 0 3 0.053000 41.612053 28.495417 28.832050
420 0 2 0.248100 39.369114 27.012857 27.900166
421 0 3 0.053000 38.935844 27.103764 28.285507
422 0 3 0.053000 40.317459 27.154011 27.924591
423 0 3 0.053000 38.698811 26.398338 27.371050
424 0 2 0.248100 38.454647 26.671576 27.259453
425 0 3 0.053000 38.143974 26.618156 27.019886
426 0 3 0.053000 37.458435 26.358450 27.235813
427 0 3 0.053000 38.747704 26.342215 26.808844
428 0 2 0.248100 39.715965 27.823990 28.147915
429 0 3 0.053000 40.476692 28.439693 28.651741
430 0 3 0.053000 38.785088 27.715584 28.174286
431 0 3 0.053000 40.044193 27.692955 27.729774
432 0 4 -1.000000 42.126694 28.756607 29.116516
433 0 1 -0.628400 19.535973 31.830481 28.021006
434 0 2 0.248100 20.614376 32.571537 28.784307
435 0 3 0.053000 20.976694 32.628838 29.012165
436 0 3 0.053000 20.276854 32.877304 29.228085
437 0 3 0.053000 21.607265 32.909809 28.832050
438 0 2 0.248100 19.364330 31.427250 27.900166
439 0 3 0.053000 18.931063 31.518156 28.285507
440 0 3 0.053000 20.312675 31.568405 27.924591
441 0 3 0.053000 18.694027 30.812731 27.371050
442 0 2 0.248100 18.449863 31.085968 27.259453
443 0 3 0.053000 18.139191 31.032547 27.019886
444 0 3 0.053000 17.453650 30.772842 27.235813
445 0 3 0.053000 18.742922 30.756607 26.808844
446 0 2 0.248100 19.711182 32.238380 28.147915
447 0 3 0.053000 20.471907 32.854088 28.651741
448 0 3 0.053000 18.780306 32.129974 28.174286
449 0 3 0.053000 20.039410 32.107346 27.729774
450 0 4 -1.000000 22.121910 33.170998 29.116516
451 0 1 -0.628400 26.204233 31.830481 28.021006
452 0 2 0.248100 27.282639 32.571537 28.784307
453 0 3 0.053000 27.644955 32.628838 29.012165
454 0 3 0.053000 26.945114 32.877304 29.228085
455 0 3 0.053000 28.275528 32.909809 28.832050
456 0 2 0.248100 26.032591 31.427250 27.900166
457 0 3 0.053000 25.599323 31.518156 28.285507
458 0 3 0.053000 26.980936 31.568405 27.924591
459 0 3 0.053000 25.362289 30.812731 27.371050
460 0 2 0.248100 25.118124 31.085968 27.259453
461 0 3 0.053000 24.807453 31.032547 27.019886
462 0 3 0.053000 24.121910 30.772842 27.235813
463 0 3 0.053000 25.411182 30.756607 26.808844
464 0 2 0.248100 26.379444 32.238380 28.147915
465 0 3 0.053000 27.140167 32.854088 28.651741
466 0 3 0.053000 25.448566 32.129974 28.174286
467 0 3 0.053000 26.707672 32.107346 27.729774
468 0 4 -1.000000 28.790173 33.170998 29.116516
469 0 1 -0.628400 32.872494 31.830481 28.021006
470 0 2 0.248100 33.950897 32.571537 28.784307
471 0 3 0.053000 34.313217 32.628838 29.012165
472 0 3 0.053000 33.613377 32.877304 29.228085
473 0 3 0.053000 34.943787 32.909809 28.832050
474 0 2 0.248100 32.700851 31.427250 27.900166
475 0 3 0.053000 32.267586 31.518156 28.285507
476 0 3 0.053000 33.649197 31.568405 27.924591
477 0 3 0.053000 32.030548 30.812731 27.371050
478 0 2 0.248100 31.786385 31.085968 27.259453
479 0 3 0.053000 31.475714 31.032547 27.019886
480 0 3 0.053000 30.790173 30.772842 27.235813
481 0 3 0.053000 32.079445 30.756607 26.808844
482 0 2 0.248100 33.047707 32.238380 28.147915
483 0 3 0.053000 33.808426 32.854088 28.651741
484 0 3 0.053000 32.116829 32.129974 28.174286
485 0 3 0.053000 33.375931 32.107346 27.729774
486 0 4 -1.000000 35.458435 33.170998 29.116516
487 0 1 -0.628400 39.540756 31.830481 28.021006
488 0 2 0.248100 40.619160 32.571537 28.784307
489 0 3 0.053000 40.981476 32.628838 29.012165
490 0 3 0.053000 40.281639 32.877304 29.228085
491 0 3 0.053000 41.612053 32.909809 28.832050
492 0 2 0.248100 39.369114 31.427250 27.900166
493 0 3 0.053000 38.935844 31.518156 28.285507
494 0 3 0.053000 40.317459 31.568405 27.924591
495 0 3 0.053000 38.698811 30.812731 27.371050
496 0 2 0.248100 38.454647 31.085968 27.259453
497 0 3 0.053000 38.143974 31.032547 27.019886
498 0 3 0.053000 37.458435 30.772842 27.235813
499 0 3 0.053000 38.747704 30.756607 26.808844
500 0 2 0.248100 39.715965 32.238380 28.147915
501 0 3 0.053000 40.476692 32.854088 28.651741
502 0 3 0.053000 38.785088 32.129974 28.174286
503 0 3 0.053000 40.044193 32.107346 27.729774
504 0 4 -1.000000 42.126694 33.170998 29.116516
505 0 1 -0.628400 19.535973 36.244873 28.021006
506 0 2 0.248100 20.614376 36.985928 28.784307
507 0 3 0.053000 20.976694 37.043228 29.012165
508 0 3 0.053000 20.276854 37.291695 29.228085
509 0 3 0.053000 21.607265 37.324200 28.832050
510 0 2 0.248100 19.364330 35.841640 27.900166
511 0 3 0.053000 18.931063 35.932549 28.285507
512 0 3 0.053000 20.312675 35.982796 27.924591
513 0 3 0.053000 18.694027 35.227123 27.371050
514 0 2 0.248100 18.449863 35.500359 27.259453
515 0 3 0.053000 18.139191 35.446938 27.019886
516 0 3 0.053000 17.453650 35.187233 27.235813
517 0 3 0.053000 18.742922 35.170998 26.808844
518 0 2 0.248100 19.711182 36.652775 28.147915
519 0 3 0.053000 20.471907 37.268478 28.651741
520 0 3 0.053000 18.780306 36.544365 28.174286
521 0 3 0.053000 20.039410 36.521740 27.729774
522 0 4 -1.000000 22.121910 37.585388 29.116516
523 0 1 -0.628400 26.204233 36.244873 28.021006
524 0 2 0.248100 27.282639 36.985928 28.784307
525 0 3 0.053000 27.644955 37.043228 29.012165
526 0 3 0.053000 26.945114 37.291695 29.228085
527 0 3 0.053000 28.275528 37.324200 28.832050
528 0 2 0.248100 26.032591 35.841640 27.900166
529 0 3 0.053000 25.599323 35.932549 28.285507
530 0 3 0.053000 26.980936 35.982796 27.924591
531 0 3 0.053000 25.362289 35.227123 27.371050
532 0 2 0.248100 25.118124 35.500359 27.259453
533 0 3 0.053000 24.807453 35.446938 27.019886
534 0 3 0.053000 24.121910 35.187233 27.235813
535 0 3 0.053000 25.411182 35.170998 26.808844
536 0 2 0.248100 26.379444 36.652775 28.147915
537 0 3 0.053000 27.140167 37.268478 28.651741
538 0 3 0.053000 25.448566 36.544365 28.174286
539 0 3 0.053000 26.707672 36.521740 27.729774
540 0 4 -1.000000 28.790173 37.585388 29.116516
541 0 1 -0.628400 32.872494 36.244873 28.021006
542 0 2 0.248100 33.950897 36.985928 28.784307
543 0 3 0.053000 34.313217 37.043228 29.012165
544 0 3 0.053000 33.613377 37.291695 29.228085
545 0 3 0.053000 34.943787 37.324200 28.832050
546 0 2 0.248100 32.700851 35.841640 27.900166
547 0 3 0.053000 32.267586 35.932549 28.285507
548 0 3 0.053000 33.649197 35.982796 27.924591
549 0 3 0.053000 32.030548 35.227123 27.371050
550 0 2 0.248100 31.786385 35.500359 27.259453
551 0 3 0.053000 31.475714 35.446938 27.019886
552 0 3 0.053000 30.790173 35.187233 27.235813
553 0 3 0.053000 32.079445 35.170998 26.808844
554 0 2 0.248100 33.047707 36.652775 28.147915
555 0 3 0.053000 33.808426 37.268478 28.651741
556 0 3 0.053000 32.116829 36.544365 28.174286
557 0 3 0.053000 33.375931 36.521740 27.729774
558 0 4 -1.000000 35.458435 37.585388 29.116516
559 0 1 -0.628400 39.540756 36.244873 28.021006
560 0 2 0.248100 40.619160 36.985928 28.784307
561 0 3 0.053000 40.981476 37.043228 29.012165
562 0 3 0.053000 40.281639 37.291695 29.228085
563 0 3 0.053000 41.612053 37.324200 28.832050
564 0 2 0.248100 39.369114 35.841640 27.900166
565 0 3 0.053000 38.935844 35.932549 28.285507
566 0 3 0.053000 40.317459 35.982796 27.924591
567 0 3 0.053000 38.698811 35.227123 27.371050
568 0 2 0.248100 38.454647 35.500359 27.259453
569 0 3 0.053000 38.143974 35.446938 27.019886
570 0 3 0.053000 37.458435 35.187233 27.235813
571 0 3 0.053000 38.747704 35.170998 26.808844
572 0 2 0.248100 39.715965 36.652775 28.147915
573 0 3 0.053000 40.476692 37.268478 28.651741
574 0 3 0.053000 38.785088 36.544365 28.174286
575 0 3 0.053000 40.044193 36.521740 27.729774
576 0 4 -1.000000 42.126694 37.585388 29.116516
577 0 1 -0.628400 19.535973 23.001698 32.440247
578 0 2 0.248100 20.614376 23.742752 33.203552
579 0 3 0.053000 20.976694 23.800053 33.431408
580 0 3 0.053000 20.276854 24.048519 33.647327
581 0 3 0.053000 21.607265 24.081024 33.251293
582 0 2 0.248100 19.364330 22.598465 32.319408
583 0 3 0.053000 18.931063 22.689371 32.704750
584 0 3 0.053000 20.312675 22.739620 32.343834
585 0 3 0.053000 18.694027 21.983948 31.790291
586 0 2 0.248100 18.449863 22.257183 31.678696
587 0 3 0.053000 18.139191 22.203764 31.439129
588 0 3 0.053000 17.453650 21.944057 31.655056
589 0 3 0.053000 18.742922 21.927822 31.228085
590 0 2 0.248100 19.711182 23.409599 32.567154
591 0 3 0.053000 20.471907 24.025303 33.070984
592 0 3 0.053000 18.780306 23.301191 32.593529
593 0 3 0.053000 20.039410 23.278564 32.149017
594 0 4 -1.000000 22.121910 24.342215 33.535759
595 0 1 -0.628400 26.204233 23.001698 32.440247
596 0 2 0.248100 27.282639 23.742752 33.203552
597 0 3 0.053000 27.644955 23.800053 33.431408
598 0 3 0.053000 26.945114 24.048519 33.647327
599 0 3 0.053000 28.275528 24.081024 33.251293
600 0 2 0.248100 26.032591 22.598465 32.319408
601 0 3 0.053000 25.599323 22.689371 32.704750
602 0 3 0.053000 26.980936 22.739620 32.343834
603 0 3 0.053000 25.362289 21.983948 31.790291
604 0 2 0.248100 25.118124 22.257183 31.678696
605 0 3 0.053000 24.807453 22.203764 31.439129
606 0 3 0.053000 24.121910 21.944057 31.655056
607 0 3 0.053000 25.411182 21.927822 31.228085
608 0 2 0.248100 26.379444 23.409599 32.567154
609 0 3 0.053000 27.140167 24.025303 33.070984
610 0 3 0.053000 25.448566 23.301191 32.593529
611 0 3 0.053000 26.707672 23.278564 32.149017
612 0 4 -1.000000 28.790173 24.342215 33.535759
613 0 1 -0.628400 32.872494 23.001698 32.440247
614 0 2 0.248100 33.950897 23.742752 33.203552
615 0 3 0.053000 34.313217 23.800053 33.431408
616 0 3 0.053000 33.613377 24.048519 33.647327
617 0 3 0.053000 34.943787 24.081024 33.251293
618 0 2 0.248100 32.700851 22.598465 32.319408
619 0 3 0.053000 32.267586 22.689371 32.704750
620 0 3 0.053000 33.649197 22.739620 32.343834
621 0 3 0.053000 32.030548 21.983948 31.790291
622 0 2 0.248100 31.786385 22.257183 31.678696
623 0 3 0.053000 31.475714 22.203764 31.439129
624 0 3 0.053000 30.790173 21.944057 31.655056
625 0 3 0.053000 32.079445 21.927822 31.228085
626 0 2 0.248100 33.047707 23.409599 32.567154
627 0 3 0.053000 33.808426 24.025303 33.070984
628 0 3 0.053000 32.116829 23.301191 32.593529
629 0 3 0.053000 33.375931 23.278564 32.149017
630 0 4 -1.000000 35.458435 24.342215 33.535759
631 0 1 -0.628400 39.540756 23.001698 32.440247