LAMMPS data file containing the original structures and the polarizable gold

10206 atoms
6328 bonds
5250 angles
6300 dihedrals
0 impropers

6 atom types
3 bond types
3 angle types
1 dihedral types

-3.000000 61.985802 xlo xhi
-3.000000 61.997501 ylo yhi
-3.000000 45.195114 zlo zhi

Masses

1 14.006700
2 12.011150
3 1.007970
4 79.908997
5 195.960000
6 1.000000

Atoms

1 0 1 -0.628400 12.655563 18.703182 23.311062
2 0 2 0.248100 13.733967 19.444237 24.074364
3 0 3 0.053000 14.096285 19.501537 24.302221
4 0 3 0.053000 13.396444 19.750004 24.518143
5 0 3 0.053000 14.726857 19.782509 24.122108
6 0 2 0.248100 12.483921 18.299950 23.190224
7 0 3 0.053000 12.050653 18.390856 23.575565
8 0 3 0.053000 13.432266 18.441105 23.214649
9 0 3 0.053000 11.813618 17.685432 22.661106
10 0 2 0.248100 11.569454 17.958668 22.549511
11 0 3 0.053000 11.258782 17.905249 22.309942
12 0 3 0.053000 10.573240 17.645542 22.525869
13 0 3 0.053000 11.862512 17.629307 22.098900
14 0 2 0.248100 12.830773 19.111084 23.437971
15 0 3 0.053000 13.591497 19.726788 23.941799
16 0 3 0.053000 11.899897 19.002676 23.464342
17 0 3 0.053000 13.159000 18.980049 23.019831
18 0 4 -1.000000 15.241501 20.043699 24.406572
19 0 1 -0.628400 19.323824 18.703182 23.311062
20 0 2 0.248100 20.402229 19.444237 24.074364
21 0 3 0.053000 20.764545 19.501537 24.302221
22 0 3 0.053000 20.064705 19.750004 24.518143
23 0 3 0.053000 21.395119 19.782509 24.122108
24 0 2 0.248100 19.152182 18.299950 23.190224
25 0 3 0.053000 18.718914 18.390856 23.575565
26 0 3 0.053000 20.100527 18.441105 23.214649
27 0 3 0.053000 18.481880 17.685432 22.661106
28 0 2 0.248100 18.237715 17.958668 22.549511
29 0 3 0.053000 17.927044 17.905249 22.309942
30 0 3 0.053000 17.241501 17.645542 22.525869
31 0 3 0.053000 18.530773 17.629307 22.098900
32 0 2 0.248100 19.499035 19.111084 23.437971
33 0 3 0.053000 20.259758 19.726788 23.941799
34 0 3 0.053000 18.568157 19.002676 23.464342
35 0 3 0.053000 19.827263 18.980049 23.019831
36 0 4 -1.000000 21.909763 20.043699 24.406572
37 0 1 -0.628400 25.992085 18.703182 23.311062
38 0 2 0.248100 27.070490 19.444237 24.074364
39 0 3 0.053000 27.432806 19.501537 24.302221
40 0 3 0.053000 26.732967 19.750004 24.518143
41 0 3 0.053000 28.063379 19.782509 24.122108
42 0 2 0.248100 25.820442 18.299950 23.190224
43 0 3 0.053000 25.387177 18.390856 23.575565
44 0 3 0.053000 26.768787 18.441105 23.214649
45 0 3 0.053000 25.150141 17.685432 22.661106
46 0 2 0.248100 24.905975 17.958668 22.549511
47 0 3 0.053000 24.595304 17.905249 22.309942
48 0 3 0.053000 23.909763 17.645542 22.525869
49 0 3 0.053000 25.199034 17.629307 22.098900
50 0 2 0.248100 26.167295 19.111084 23.437971
51 0 3 0.053000 26.928019 19.726788 23.941799
52 0 3 0.053000 25.236420 19.002676 23.464342
53 0 3 0.053000 26.495523 18.980049 23.019831
54 0 4 -1.000000 28.578024 20.043699 24.406572
55 0 1 -0.628400 32.660347 18.703182 23.311062
56 0 2 0.248100 33.738750 19.444237 24.074364
57 0 3 0.053000 34.101067 19.501537 24.302221
58 0 3 0.053000 33.401230 19.750004 24.518143
59 0 3 0.053000 34.731644 19.782509 24.122108
60 0 2 0.248100 32.488705 18.299950 23.190224
61 0 3 0.053000 32.055435 18.390856 23.575565
62 0 3 0.053000 33.437050 18.441105 23.214649
63 0 3 0.053000 31.818401 17.685432 22.661106
64 0 2 0.248100 31.574238 17.958668 22.549511
65 0 3 0.053000 31.263565 17.905249 22.309942
66 0 3 0.053000 30.578024 17.645542 22.525869
67 0 3 0.053000 31.867296 17.629307 22.098900
68 0 2 0.248100 32.835556 19.111084 23.437971
69 0 3 0.053000 33.596283 19.726788 23.941799
70 0 3 0.053000 31.904680 19.002676 23.464342
71 0 3 0.053000 33.163784 18.980049 23.019831
72 0 4 -1.000000 35.246284 20.043699 24.406572
73 0 1 -0.628400 39.328606 18.703182 23.311062
74 0 2 0.248100 40.407013 19.444237 24.074364
75 0 3 0.053000 40.769329 19.501537 24.302221
76 0 3 0.053000 40.069489 19.750004 24.518143
77 0 3 0.053000 41.399902 19.782509 24.122108
78 0 2 0.248100 39.156967 18.299950 23.190224
79 0 3 0.053000 38.723698 18.390856 23.575565
80 0 3 0.053000 40.105309 18.441105 23.214649
81 0 3 0.053000 38.486664 17.685432 22.661106
82 0 2 0.248100 38.242500 17.958668 22.549511
83 0 3 0.053000 37.931824 17.905249 22.309942
84 0 3 0.053000 37.246284 17.645542 22.525869
85 0 3 0.053000 38.535557 17.629307 22.098900
86 0 2 0.248100 39.503815 19.111084 23.437971
87 0 3 0.053000 40.264542 19.726788 23.941799
88 0 3 0.053000 38.572941 19.002676 23.464342
89 0 3 0.053000 39.832047 18.980049 23.019831
90 0 4 -1.000000 41.914543 20.043699 24.406572
91 0 1 -0.628400 45.996864 18.703182 23.311062
92 0 2 0.248100 47.075272 19.444237 24.074364
93 0 3 0.053000 47.437592 19.501537 24.302221
94 0 3 0.053000 46.737747 19.750004 24.518143
95 0 3 0.053000 48.068161 19.782509 24.122108
96 0 2 0.248100 45.825226 18.299950 23.190224
97 0 3 0.053000 45.391960 18.390856 23.575565
98 0 3 0.053000 46.773567 18.441105 23.214649
99 0 3 0.053000 45.154922 17.685432 22.661106
100 0 2 0.248100 44.910759 17.958668 22.549511
101 0 3 0.053000 44.600090 17.905249 22.309942
102 0 3 0.053000 43.914543 17.645542 22.525869
103 0 3 0.053000 45.203819 17.629307 22.098900
104 0 2 0.248100 46.172081 19.111084 23.437971
105 0 3 0.053000 46.932800 19.726788 23.941799
106 0 3 0.053000 45.241203 19.002676 23.464342
107 0 3 0.053000 46.500305 18.980049 23.019831
108 0 4 -1.000000 48.582809 20.043699 24.406572
109 0 1 -0.628400 12.655563 23.117573 23.311062
110 0 2 0.248100 13.733967 23.858629 24.074364
111 0 3 0.053000 14.096285 23.915928 24.302221
112 0 3 0.053000 13.396444 24.164394 24.518143
113 0 3 0.053000 14.726857 24.196901 24.122108
114 0 2 0.248100 12.483921 22.714342 23.190224
115 0 3 0.053000 12.050653 22.805248 23.575565
116 0 3 0.053000 13.432266 22.855495 23.214649
117 0 3 0.053000 11.813618 22.099823 22.661106
118 0 2 0.248100 11.569454 22.373060 22.549511
119 0 3 0.053000 11.258782 22.319641 22.309942
120 0 3 0.053000 10.573240 22.059935 22.525869
121 0 3 0.053000 11.862512 22.043699 22.098900
122 0 2 0.248100 12.830773 23.525475 23.437971
123 0 3 0.053000 13.591497 24.141178 23.941799
124 0 3 0.053000 11.899897 23.417068 23.464342
125 0 3 0.053000 13.159000 23.394440 23.019831
126 0 4 -1.000000 15.241501 24.458092 24.406572
127 0 1 -0.628400 19.323824 23.117573 23.311062
128 0 2 0.248100 20.402229 23.858629 24.074364
129 0 3 0.053000 20.764545 23.915928 24.302221
130 0 3 0.053000 20.064705 24.164394 24.518143
131 0 3 0.053000 21.395119 24.196901 24.122108
132 0 2 0.248100 19.152182 22.714342 23.190224
133 0 3 0.053000 18.718914 22.805248 23.575565
134 0 3 0.053000 20.100527 22.855495 23.214649
135 0 3 0.053000 18.481880 22.099823 22.661106
136 0 2 0.248100 18.237715 22.373060 22.549511
137 0 3 0.053000 17.927044 22.319641 22.309942
138 0 3 0.053000 17.241501 22.059935 22.525869
139 0 3 0.053000 18.530773 22.043699 22.098900
140 0 2 0.248100 19.499035 23.525475 23.437971
141 0 3 0.053000 20.259758 24.141178 23.941799
142 0 3 0.053000 18.568157 23.417068 23.464342
143 0 3 0.053000 19.827263 23.394440 23.019831
144 0 4 -1.000000 21.909763 24.458092 24.406572
145 0 1 -0.628400 25.992085 23.117573 23.311062
146 0 2 0.248100 27.070490 23.858629 24.074364
147 0 3 0.053000 27.432806 23.915928 24.302221
148 0 3 0.053000 26.732967 24.164394 24.518143
149 0 3 0.053000 28.063379 24.196901 24.122108
150 0 2 0.248100 25.820442 22.714342 23.190224
151 0 3 0.053000 25.387177 22.805248 23.575565
152 0 3 0.053000 26.768787 22.855495 23.214649
153 0 3 0.053000 25.150141 22.099823 22.661106
154 0 2 0.248100 24.905975 22.373060 22.549511
155 0 3 0.053000 24.595304 22.319641 22.309942
156 0 3 0.053000 23.909763 22.059935 22.525869
157 0 3 0.053000 25.199034 22.043699 22.098900
158 0 2 0.248100 26.167295 23.525475 23.437971
159 0 3 0.053000 26.928019 24.141178 23.941799
160 0 3 0.053000 25.236420 23.417068 23.464342
161 0 3 0.053000 26.495523 23.394440 23.019831
162 0 4 -1.000000 28.578024 24.458092 24.406572
163 0 1 -0.628400 32.660347 23.117573 23.311062
164 0 2 0.248100 33.738750 23.858629 24.074364
165 0 3 0.053000 34.101067 23.915928 24.302221
166 0 3 0.053000 33.401230 24.164394 24.518143
167 0 3 0.053000 34.731644 24.196901 24.122108
168 0 2 0.248100 32.488705 22.714342 23.190224
169 0 3 0.053000 32.055435 22.805248 23.575565
170 0 3 0.053000 33.437050 22.855495 23.214649
171 0 3 0.053000 31.818401 22.099823 22.661106
172 0 2 0.248100 31.574238 22.373060 22.549511
173 0 3 0.053000 31.263565 22.319641 22.309942
174 0 3 0.053000 30.578024 22.059935 22.525869
175 0 3 0.053000 31.867296 22.043699 22.098900
176 0 2 0.248100 32.835556 23.525475 23.437971
177 0 3 0.053000 33.596283 24.141178 23.941799
178 0 3 0.053000 31.904680 23.417068 23.464342
179 0 3 0.053000 33.163784 23.394440 23.019831
180 0 4 -1.000000 35.246284 24.458092 24.406572
181 0 1 -0.628400 39.328606 23.117573 23.311062
182 0 2 0.248100 40.407013 23.858629 24.074364
183 0 3 0.053000 40.769329 23.915928 24.302221
184 0 3 0.053000 40.069489 24.164394 24.518143
185 0 3 0.053000 41.399902 24.196901 24.122108
186 0 2 0.248100 39.156967 22.714342 23.190224
187 0 3 0.053000 38.723698 22.805248 23.575565
188 0 3 0.053000 40.105309 22.855495 23.214649
189 0 3 0.053000 38.486664 22.099823 22.661106
190 0 2 0.248100 38.242500 22.373060 22.549511
191 0 3 0.053000 37.931824 22.319641 22.309942
192 0 3 0.053000 37.246284 22.059935 22.525869
193 0 3 0.053000 38.535557 22.043699 22.098900
194 0 2 0.248100 39.503815 23.525475 23.437971
195 0 3 0.053000 40.264542 24.141178 23.941799
196 0 3 0.053000 38.572941 23.417068 23.464342
197 0 3 0.053000 39.832047 23.394440 23.019831
198 0 4 -1.000000 41.914543 24.458092 24.406572
199 0 1 -0.628400 45.996864 23.117573 23.311062
200 0 2 0.248100 47.075272 23.858629 24.074364
201 0 3 0.053000 47.437592 23.915928 24.302221
202 0 3 0.053000 46.737747 24.164394 24.518143
203 0 3 0.053000 48.068161 24.196901 24.122108
204 0 2 0.248100 45.825226 22.714342 23.190224
205 0 3 0.053000 45.391960 22.805248 23.575565
206 0 3 0.053000 46.773567 22.855495 23.214649
207 0 3 0.053000 45.154922 22.099823 22.661106
208 0 2 0.248100 44.910759 22.373060 22.549511
209 0 3 0.053000 44.600090 22.319641 22.309942
210 0 3 0.053000 43.914543 22.059935 22.525869
211 0 3 0.053000 45.203819 22.043699 22.098900
212 0 2 0.248100 46.172081 23.525475 23.437971
213 0 3 0.053000 46.932800 24.141178 23.941799
214 0 3 0.053000 45.241203 23.417068 23.464342
215 0 3 0.053000 46.500305 23.394440 23.019831
216 0 4 -1.000000 48.582809 24.458092 24.406572
217 0 1 -0.628400 12.655563 27.531965 23.311062
218 0 2 0.248100 13.733967 28.273022 24.074364
219 0 3 0.053000 14.096285 28.330320 24.302221
220 0 3 0.053000 13.396444 28.578787 24.518143
221 0 3 0.053000 14.726857 28.611294 24.122108
222 0 2 0.248100 12.483921 27.128735 23.190224
223 0 3 0.053000 12.050653 27.219641 23.575565
224 0 3 0.053000 13.432266 27.269890 23.214649
225 0 3 0.053000 11.813618 26.514215 22.661106
226 0 2 0.248100 11.569454 26.787453 22.549511
227 0 3 0.053000 11.258782 26.734032 22.309942
228 0 3 0.053000 10.573240 26.474327 22.525869
229 0 3 0.053000 11.862512 26.458092 22.098900
230 0 2 0.248100 12.830773 27.939867 23.437971
231 0 3 0.053000 13.591497 28.555571 23.941799
232 0 3 0.053000 11.899897 27.831459 23.464342
233 0 3 0.053000 13.159000 27.808832 23.019831
234 0 4 -1.000000 15.241501 28.872482 24.406572
235 0 1 -0.628400 19.323824 27.531965 23.311062
236 0 2 0.248100 20.402229 28.273022 24.074364
237 0 3 0.053000 20.764545 28.330320 24.302221
238 0 3 0.053000 20.064705 28.578787 24.518143
239 0 3 0.053000 21.395119 28.611294 24.122108
240 0 2 0.248100 19.152182 27.128735 23.190224
241 0 3 0.053000 18.718914 27.219641 23.575565
242 0 3 0.053000 20.100527 27.269890 23.214649
243 0 3 0.053000 18.481880 26.514215 22.661106
244 0 2 0.248100 18.237715 26.787453 22.549511
245 0 3 0.053000 17.927044 26.734032 22.309942
246 0 3 0.053000 17.241501 26.474327 22.525869
247 0 3 0.053000 18.530773 26.458092 22.098900
248 0 2 0.248100 19.499035 27.939867 23.437971
249 0 3 0.053000 20.259758 28.555571 23.941799
250 0 3 0.053000 18.568157 27.831459 23.464342
251 0 3 0.053000 19.827263 27.808832 23.019831
252 0 4 -1.000000 21.909763 28.872482 24.406572
253 0 1 -0.628400 25.992085 27.531965 23.311062
254 0 2 0.248100 27.070490 28.273022 24.074364
255 0 3 0.053000 27.432806 28.330320 24.302221
256 0 3 0.053000 26.732967 28.578787 24.518143
257 0 3 0.053000 28.063379 28.611294 24.122108
258 0 2 0.248100 25.820442 27.128735 23.190224
259 0 3 0.053000 25.387177 27.219641 23.575565
260 0 3 0.053000 26.768787 27.269890 23.214649
261 0 3 0.053000 25.150141 26.514215 22.661106
262 0 2 0.248100 24.905975 26.787453 22.549511
263 0 3 0.053000 24.595304 26.734032 22.309942
264 0 3 0.053000 23.909763 26.474327 22.525869
265 0 3 0.053000 25.199034 26.458092 22.098900
266 0 2 0.248100 26.167295 27.939867 23.437971
267 0 3 0.053000 26.928019 28.555571 23.941799
268 0 3 0.053000 25.236420 27.831459 23.464342
269 0 3 0.053000 26.495523 27.808832 23.019831
270 0 4 -1.000000 28.578024 28.872482 24.406572
271 0 1 -0.628400 32.660347 27.531965 23.311062
272 0 2 0.248100 33.738750 28.273022 24.074364
273 0 3 0.053000 34.101067 28.330320 24.302221
274 0 3 0.053000 33.401230 28.578787 24.518143
275 0 3 0.053000 34.731644 28.611294 24.122108
276 0 2 0.248100 32.488705 27.128735 23.190224
277 0 3 0.053000 32.055435 27.219641 23.575565
278 0 3 0.053000 33.437050 27.269890 23.214649
279 0 3 0.053000 31.818401 26.514215 22.661106
280 0 2 0.248100 31.574238 26.787453 22.549511
281 0 3 0.053000 31.263565 26.734032 22.309942
282 0 3 0.053000 30.578024 26.474327 22.525869
283 0 3 0.053000 31.867296 26.458092 22.098900
284 0 2 0.248100 32.835556 27.939867 23.437971
285 0 3 0.053000 33.596283 28.555571 23.941799
286 0 3 0.053000 31.904680 27.831459 23.464342
287 0 3 0.053000 33.163784 27.808832 23.019831
288 0 4 -1.000000 35.246284 28.872482 24.406572
289 0 1 -0.628400 39.328606 27.531965 23.311062
290 0 2 0.248100 40.407013 28.273022 24.074364
291 0 3 0.053000 40.769329 28.330320 24.302221
292 0 3 0.053000 40.069489 28.578787 24.518143
293 0 3 0.053000 41.399902 28.611294 24.122108
294 0 2 0.248100 39.156967 27.128735 23.190224
295 0 3 0.053000 38.723698 27.219641 23.575565
296 0 3 0.053000 40.105309 27.269890 23.214649
297 0 3 0.053000 38.486664 26.514215 22.661106
298 0 2 0.248100 38.242500 26.787453 22.549511
299 0 3 0.053000 37.931824 26.734032 22.309942
300 0 3 0.053000 37.246284 26.474327 22.525869
301 0 3 0.053000 38.535557 26.458092 22.098900
302 0 2 0.248100 39.503815 27.939867 23.437971
303 0 3 0.053000 40.264542 28.555571 23.941799
304 0 3 0.053000 38.572941 27.831459 23.464342
305 0 3 0.053000 39.832047 27.808832 23.019831
306 0 4 -1.000000 41.914543 28.872482 24.406572
307 0 1 -0.628400 45.996864 27.531965 23.311062
308 0 2 0.248100 47.075272 28.273022 24.074364
309 0 3 0.053000 47.437592 28.330320 24.302221
310 0 3 0.053000 46.737747 28.578787 24.518143
311 0 3 0.053000 48.068161 28.611294 24.122108
312 0 2 0.248100 45.825226 27.128735 23.190224
313 0 3 0.053000 45.391960 27.219641 23.575565
314 0 3 0.053000 46.773567 27.269890 23.214649
315 0 3 0.053000 45.154922 26.514215 22.661106
316 0 2 0.248100 44.910759 26.787453 22.549511
317 0 3 0.053000 44.600090 26.734032 22.309942
318 0 3 0.053000 43.914543 26.474327 22.525869
319 0 3 0.053000 45.203819 26.458092 22.098900
320 0 2 0.248100 46.172081 27.939867 23.437971
321 0 3 0.053000 46.932800 28.555571 23.941799
322 0 3 0.053000 45.241203 27.831459 23.464342
323 0 3 0.053000 46.500305 27.808832 23.019831
324 0 4 -1.000000 48.582809 28.872482 24.406572
325 0 1 -0.628400 12.655563 31.946358 23.311062
326 0 2 0.248100 13.733967 32.687412 24.074364
327 0 3 0.053000 14.096285 32.744713 24.302221
328 0 3 0.053000 13.396444 32.993179 24.518143
329 0 3 0.053000 14.726857 33.025684 24.122108
330 0 2 0.248100 12.483921 31.543125 23.190224
331 0 3 0.053000 12.050653 31.634031 23.575565
332 0 3 0.053000 13.432266 31.684280 23.214649
333 0 3 0.053000 11.813618 30.928608 22.661106
334 0 2 0.248100 11.569454 31.201843 22.549511
335 0 3 0.053000 11.258782 31.148424 22.309942
336 0 3 0.053000 10.573240 30.888718 22.525869
337 0 3 0.053000 11.862512 30.872482 22.098900
338 0 2 0.248100 12.830773 32.354259 23.437971
339 0 3 0.053000 13.591497 32.969963 23.941799
340 0 3 0.053000 11.899897 32.245850 23.464342
341 0 3 0.053000 13.159000 32.223225 23.019831
342 0 4 -1.000000 15.241501 33.286873 24.406572
343 0 1 -0.628400 19.323824 31.946358 23.311062
344 0 2 0.248100 20.402229 32.687412 24.074364
345 0 3 0.053000 20.764545 32.744713 24.302221
346 0 3 0.053000 20.064705 32.993179 24.518143
347 0 3 0.053000 21.395119 33.025684 24.122108
348 0 2 0.248100 19.152182 31.543125 23.190224
349 0 3 0.053000 18.718914 31.634031 23.575565
350 0 3 0.053000 20.100527 31.684280 23.214649
351 0 3 0.053000 18.481880 30.928608 22.661106
352 0 2 0.248100 18.237715 31.201843 22.549511
353 0 3 0.053000 17.927044 31.148424 22.309942
354 0 3 0.053000 17.241501 30.888718 22.525869
355 0 3 0.053000 18.530773 30.872482 22.098900
356 0 2 0.248100 19.499035 32.354259 23.437971
357 0 3 0.053000 20.259758 32.969963 23.941799
358 0 3 0.053000 18.568157 32.245850 23.464342
359 0 3 0.053000 19.827263 32.223225 23.019831
360 0 4 -1.000000 21.909763 33.286873 24.406572
361 0 1 -0.628400 25.992085 31.946358 23.311062
362 0 2 0.248100 27.070490 32.687412 24.074364
363 0 3 0.053000 27.432806 32.744713 24.302221
364 0 3 0.053000 26.732967 32.993179 24.518143
365 0 3 0.053000 28.063379 33.025684 24.122108
366 0 2 0.248100 25.820442 31.543125 23.190224
367 0 3 0.053000 25.387177 31.634031 23.575565
368 0 3 0.053000 26.768787 31.684280 23.214649
369 0 3 0.053000 25.150141 30.928608 22.661106
370 0 2 0.248100 24.905975 31.201843 22.549511
371 0 3 0.053000 24.595304 31.148424 22.309942
372 0 3 0.053000 23.909763 30.888718 22.525869
373 0 3 0.053000 25.199034 30.872482 22.098900
374 0 2 0.248100 26.167295 32.354259 23.437971
375 0 3 0.053000 26.928019 32.969963 23.941799
376 0 3 0.053000 25.236420 32.245850 23.464342
377 0 3 0.053000 26.495523 32.223225 23.019831
378 0 4 -1.000000 28.578024 33.286873 24.406572
379 0 1 -0.628400 32.660347 31.946358 23.311062
380 0 2 0.248100 33.738750 32.687412 24.074364
381 0 3 0.053000 34.101067 32.744713 24.302221
382 0 3 0.053000 33.401230 32.993179 24.518143
383 0 3 0.053000 34.731644 33.025684 24.122108
384 0 2 0.248100 32.488705 31.543125 23.190224
385 0 3 0.053000 32.055435 31.634031 23.575565
386 0 3 0.053000 33.437050 31.684280 23.214649
387 0 3 0.053000 31.818401 30.928608 22.661106
388 0 2 0.248100 31.574238 31.201843 22.549511
389 0 3 0.053000 31.263565 31.148424 22.309942
390 0 3 0.053000 30.578024 30.888718 22.525869
391 0 3 0.053000 31.867296 30.872482 22.098900
392 0 2 0.248100 32.835556 32.354259 23.437971
393 0 3 0.053000 33.596283 32.969963 23.941799
394 0 3 0.053000 31.904680 32.245850 23.464342
395 0 3 0.053000 33.163784 32.223225 23.019831
396 0 4 -1.000000 35.246284 33.286873 24.406572
397 0 1 -0.628400 39.328606 31.946358 23.311062
398 0 2 0.248100 40.407013 32.687412 24.074364
399 0 3 0.053000 40.769329 32.744713 24.302221
400 0 3 0.053000 40.069489 32.993179 24.518143
401 0 3 0.053000 41.399902 33.025684 24.122108
402 0 2 0.248100 39.156967 31.543125 23.190224
403 0 3 0.053000 38.723698 31.634031 23.575565
404 0 3 0.053000 40.105309 31.684280 23.214649
405 0 3 0.053000 38.486664 30.928608 22.661106
406 0 2 0.248100 38.242500 31.201843 22.549511
407 0 3 0.053000 37.931824 31.148424 22.309942
408 0 3 0.053000 37.246284 30.888718 22.525869
409 0 3 0.053000 38.535557 30.872482 22.098900
410 0 2 0.248100 39.503815 32.354259 23.437971
411 0 3 0.053000 40.264542 32.969963 23.941799
412 0 3 0.053000 38.572941 32.245850 23.464342
413 0 3 0.053000 39.832047 32.223225 23.019831
414 0 4 -1.000000 41.914543 33.286873 24.406572
415 0 1 -0.628400 45.996864 31.946358 23.311062
416 0 2 0.248100 47.075272 32.687412 24.074364
417 0 3 0.053000 47.437592 32.744713 24.302221
418 0 3 0.053000 46.737747 32.993179 24.518143
419 0 3 0.053000 48.068161 33.025684 24.122108
420 0 2 0.248100 45.825226 31.543125 23.190224
421 0 3 0.053000 45.391960 31.634031 23.575565
422 0 3 0.053000 46.773567 31.684280 23.214649
423 0 3 0.053000 45.154922 30.928608 22.661106
424 0 2 0.248100 44.910759 31.201843 22.549511
425 0 3 0.053000 44.600090 31.148424 22.309942
426 0 3 0.053000 43.914543 30.888718 22.525869
427 0 3 0.053000 45.203819 30.872482 22.098900
428 0 2 0.248100 46.172081 32.354259 23.437971
429 0 3 0.053000 46.932800 32.969963 23.941799
430 0 3 0.053000 45.241203 32.245850 23.464342
431 0 3 0.053000 46.500305 32.223225 23.019831
432 0 4 -1.000000 48.582809 33.286873 24.406572
433 0 1 -0.628400 12.655563 36.360748 23.311062
434 0 2 0.248100 13.733967 37.101807 24.074364
435 0 3 0.053000 14.096285 37.159103 24.302221
436 0 3 0.053000 13.396444 37.407570 24.518143
437 0 3 0.053000 14.726857 37.440079 24.122108
438 0 2 0.248100 12.483921 35.957520 23.190224
439 0 3 0.053000 12.050653 36.048424 23.575565
440 0 3 0.053000 13.432266 36.098671 23.214649
441 0 3 0.053000 11.813618 35.343002 22.661106
442 0 2 0.248100 11.569454 35.616234 22.549511
443 0 3 0.053000 11.258782 35.562817 22.309942
444 0 3 0.053000 10.573240 35.303108 22.525869
445 0 3 0.053000 11.862512 35.286873 22.098900
446 0 2 0.248100 12.830773 36.768654 23.437971
447 0 3 0.053000 13.591497 37.384354 23.941799
448 0 3 0.053000 11.899897 36.660244 23.464342
449 0 3 0.053000 13.159000 36.637619 23.019831
450 0 4 -1.000000 15.241501 37.701267 24.406572
451 0 1 -0.628400 19.323824 36.360748 23.311062
452 0 2 0.248100 20.402229 37.101807 24.074364
453 0 3 0.053000 20.764545 37.159103 24.302221
454 0 3 0.053000 20.064705 37.407570 24.518143
455 0 3 0.053000 21.395119 37.440079 24.122108
456 0 2 0.248100 19.152182 35.957520 23.190224
457 0 3 0.053000 18.718914 36.048424 23.575565
458 0 3 0.053000 20.100527 36.098671 23.214649
459 0 3 0.053000 18.481880 35.343002 22.661106
460 0 2 0.248100 18.237715 35.616234 22.549511
461 0 3 0.053000 17.927044 35.562817 22.309942
462 0 3 0.053000 17.241501 35.303108 22.525869
463 0 3 0.053000 18.530773 35.286873 22.098900
464 0 2 0.248100 19.499035 36.768654 23.437971
465 0 3 0.053000 20.259758 37.384354 23.941799
466 0 3 0.053000 18.568157 36.660244 23.464342
467 0 3 0.053000 19.827263 36.637619 23.019831
468 0 4 -1.000000 21.909763 37.701267 24.406572
469 0 1 -0.628400 25.992085 36.360748 23.311062
470 0 2 0.248100 27.070490 37.101807 24.074364
471 0 3 0.053000 27.432806 37.159103 24.302221
472 0 3 0.053000 26.732967 37.407570 24.518143
473 0 3 0.053000 28.063379 37.440079 24.122108
474 0 2 0.248100 25.820442 35.957520 23.190224
475 0 3 0.053000 25.387177 36.048424 23.575565
476 0 3 0.053000 26.768787 36.098671 23.214649
477 0 3 0.053000 25.150141 35.343002 22.661106
478 0 2 0.248100 24.905975 35.616234 22.549511
479 0 3 0.053000 24.595304 35.562817 22.309942
480 0 3 0.053000 23.909763 35.303108 22.525869
481 0 3 0.053000 25.199034 35.286873 22.098900
482 0 2 0.248100 26.167295 36.768654 23.437971
483 0 3 0.053000 26.928019 37.384354 23.941799
484 0 3 0.053000 25.236420 36.660244 23.464342
485 0 3 0.053000 26.495523 36.637619 23.019831
486 0 4 -1.000000 28.578024 37.701267 24.406572
487 0 1 -0.628400 32.660347 36.360748 23.311062
488 0 2 0.248100 33.738750 37.101807 24.074364
489 0 3 0.053000 34.101067 37.159103 24.302221
490 0 3 0.053000 33.401230 37.407570 24.518143
491 0 3 0.053000 34.731644 37.440079 24.122108
492 0 2 0.248100 32.488705 35.957520 23.190224
493 0 3 0.053000 32.055435 36.048424 23.575565
494 0 3 0.053000 33.437050 36.098671 23.214649
495 0 3 0.053000 31.818401 35.343002 22.661106
496 0 2 0.248100 31.574238 35.616234 22.549511
497 0 3 0.053000 31.263565 35.562817 22.309942
498 0 3 0.053000 30.578024 35.303108 22.525869
499 0 3 0.053000 31.867296 35.286873 22.098900
500 0 2 0.248100 32.835556 36.768654 23.437971
501 0 3 0.053000 33.596283 37.384354 23.941799
502 0 3 0.053000 31.904680 36.660244 23.464342
503 0 3 0.053000 33.163784 36.637619 23.019831
504 0 4 -1.000000 35.246284 37.701267 24.406572
505 0 1 -0.628400 39.328606 36.360748 23.311062
506 0 2 0.248100 40.407013 37.101807 24.074364
507 0 3 0.053000 40.769329 37.159103 24.302221
508 0 3 0.053000 40.069489 37.407570 24.518143
509 0 3 0.053000 41.399902 37.440079 24.122108
510 0 2 0.248100 39.156967 35.957520 23.190224
511 0 3 0.053000 38.723698 36.048424 23.575565
512 0 3 0.053000 40.105309 36.098671 23.214649
513 0 3 0.053000 38.486664 35.343002 22.661106
514 0 2 0.248100 38.242500 35.616234 22.549511
515 0 3 0.053000 37.931824 35.562817 22.309942
516 0 3 0.053000 37.246284 35.303108 22.525869
517 0 3 0.053000 38.535557 35.286873 22.098900
518 0 2 0.248100 39.503815 36.768654 23.437971
519 0 3 0.053000 40.264542 37.384354 23.941799
520 0 3 0.053000 38.572941 36.660244 23.464342
521 0 3 0.053000 39.832047 36.637619 23.019831
522 0 4 -1.000000 41.914543 37.701267 24.406572
523 0 1 -0.628400 45.996864 36.360748 23.311062
524 0 2 0.248100 47.075272 37.101807 24.074364
525 0 3 0.053000 47.437592 37.159103 24.302221
526 0 3 0.053000 46.737747 37.407570 24.518143
527 0 3 0.053000 48.068161 37.440079 24.122108
528 0 2 0.248100 45.825226 35.957520 23.190224
529 0 3 0.053000 45.391960 36.048424 23.575565
530 0 3 0.053000 46.773567 36.098671 23.214649
531 0 3 0.053000 45.154922 35.343002 22.661106
532 0 2 0.248100 44.910759 35.616234 22.549511
533 0 3 0.053000 44.600090 35.562817 22.309942
534 0 3 0.053000 43.914543 35.303108 22.525869
535 0 3 0.053000 45.203819 35.286873 22.098900
536 0 2 0.248100 46.172081 36.768654 23.437971
537 0 3 0.053000 46.932800 37.384354 23.941799
538 0 3 0.053000 45.241203 36.660244 23.464342
539 0 3 0.053000 46.500305 36.637619 23.019831
540 0 4 -1.000000 48.582809 37.701267 24.406572
541 0 1 -0.628400 12.655563 40.775143 23.311062
542 0 2 0.248100 13.733967 41.516197 24.074364
543 0 3 0.053000 14.096285 41.573498 24.302221
544 0 3 0.053000 13.396444 41.821964 24.518143
545 0 3 0.053000 14.726857 41.854469 24.122108
546 0 2 0.248100 12.483921 40.371910 23.190224
547 0 3 0.053000 12.050653 40.462814 23.575565
548 0 3 0.053000 13.432266 40.513065 23.214649
549 0 3 0.053000 11.813618 39.757393 22.661106
550 0 2 0.248100 11.569454 40.030628 22.549511
551 0 3 0.053000 11.258782 39.977211 22.309942
552 0 3 0.053000 10.573240 39.717503 22.525869
553 0 3 0.053000 11.862512 39.701267 22.098900
554 0 2 0.248100 12.830773 41.183044 23.437971
555 0 3 0.053000 13.591497 41.798748 23.941799
556 0 3 0.053000 11.899897 41.074638 23.464342
557 0 3 0.053000 13.159000 41.052010 23.019831
558 0 4 -1.000000 15.241501 42.115662 24.406572
559 0 1 -0.628400 19.323824 40.775143 23.311062
560 0 2 0.248100 20.402229 41.516197 24.074364
561 0 3 0.053000 20.764545 41.573498 24.302221
562 0 3 0.053000 20.064705 41.821964 24.518143
563 0 3 0.053000 21.395119 41.854469 24.122108
564 0 2 0.248100 19.152182 40.371910 23.190224
565 0 3 0.053000 18.718914 40.462814 23.575565
566 0 3 0.053000 20.100527 40.513065 23.214649
567 0 3 0.053000 18.481880 39.757393 22.661106
568 0 2 0.248100 18.237715 40.030628 22.549511
569 0 3 0.053000 17.927044 39.977211 22.309942
570 0 3 0.053000 17.241501 39.717503 22.525869
571 0 3 0.053000 18.530773 39.701267 22.098900
572 0 2 0.248100 19.499035 41.183044 23.437971
573 0 3 0.053000 20.259758 41.798748 23.941799
574 0 3 0.053000 18.568157 41.074638 23.464342
575 0 3 0.053000 19.827263 41.052010 23.019831
576 0 4 -1.000000 21.909763 42.115662 24.406572
577 0 1 -0.628400 25.992085 40.775143 23.311062
578 0 2 0.248100 27.070490 41.516197 24.074364
579 0 3 0.053000 27.432806 41.573498 24.302221
580 0 3 0.053000 26.732967 41.821964 24.518143
581 0 3 0.053000 28.063379 41.854469 24.122108
582 0 2 0.248100 25.820442 40.371910 23.190224
583 0 3 0.053000 25.387177 40.462814 23.575565
584 0 3 0.053000 26.768787 40.513065 23.214649
585 0 3 0.053000 25.150141 39.757393 22.661106
586 0 2 0.248100 24.905975 40.030628 22.549511
587 0 3 0.053000 24.595304 39.977211 22.309942
588 0 3 0.053000 23.909763 39.717503 22.525869
589 0 3 0.053000 25.199034 39.701267 22.098900
590 0 2 0.248100 26.167295 41.183044 23.437971
591 0 3 0.053000 26.928019 41.798748 23.941799
592 0 3 0.053000 25.236420 41.074638 23.464342
593 0 3 0.053000 26.495523 41.052010 23.019831
594 0 4 -1.000000 28.578024 42.115662 24.406572
595 0 1 -0.628400 32.660347 40.775143 23.311062
596 0 2 0.248100 33.738750 41.516197 24.074364
597 0 3 0.053000 34.101067 41.573498 24.302221
598 0 3 0.053000 33.401230 41.821964 24.518143
599 0 3 0.053000 34.731644 41.854469 24.122108
600 0 2 0.248100 32.488705 40.371910 23.190224
601 0 3 0.053000 32.055435 40.462814 23.575565
602 0 3 0.053000 33.437050 40.513065 23.214649
603 0 3 0.053000 31.818401 39.757393 22.661106
604 0 2 0.248100 31.574238 40.030628 22.549511
605 0 3 0.053000 31.263565 39.977211 22.309942
606 0 3 0.053000 30.578024 39.717503 22.525869
607 0 3 0.053000 31.867296 39.701267 22.098900
608 0 2 0.248100 32.835556 41.183044 23.437971
609 0 3 0.053000 33.596283 41.798748 23.941799
610 0 3 0.053000 31.904680 41.074638 23.464342
611 0 3 0.053000 33.163784 41.052010 23.019831
612 0 4 -1.000000 35.246284 42.115662 24.406572
613 0 1 -0.628400 39.328606 40.775143 23.311062
614 0 2 0.248100 40.407013 41.516197 24.074364
615 0 3 0.053000 40.769329 41.573498 24.302221
616 0 3 0.053000 40.069489 41.821964 24.518143
617 0 3 0.053000 41.399902 41.854469 24.122108
618 0 2 0.248100 39.156967 40.371910 23.190224
619 0 3 0.053000 38.723698 40.462814 23.575565
620 0 3 0.053000 40.105309 40.513065 23.214649
621 0 3 0.053000 38.486664 39.757393 22.661106
622 0 2 0.248100 38.242500 40.030628 22.549511
623 0 3 0.053000 37.931824 39.977211 22.309942
624 0 3 0.053000 37.246284 39.717503 22.525869
625 0 3 0.053000 38.535557 39.701267 22.098900
626 0 2 0.248100 39.503815 41.183044 23.437971
627 0 3 0.053000 40.264542 41.798748 23.941799
628 0 3 0.053000 38.572941 41.074638 23.464342
629 0 3 0.053000 39.832047 41.052010 23.019831
630 0 4 -1.000000 41.914543 42.115662 24.406572
631 0 1 -0.628400 45.996864 40.775143 23.311062