LAMMPS data file containing the original structures and the polarizable gold

9180 atoms
5465 bonds
3750 angles
4500 dihedrals
0 impropers

6 atom types
3 bond types
3 angle types
1 dihedral types

-3.000000 62.014999 xlo xhi
-3.000000 61.997501 ylo yhi
-3.000000 45.485813 zlo zhi

Masses

1 14.006700
2 12.011150
3 1.007970
4 79.908997
5 195.960000
6 1.000000

Atoms

1 0 1 -0.628400 15.935148 20.529613 23.601763
2 0 2 0.248100 17.013552 21.270668 24.365065
3 0 3 0.053000 17.375870 21.327969 24.592922
4 0 3 0.053000 16.676029 21.576435 24.808844
5 0 3 0.053000 18.006443 21.608940 24.412809
6 0 2 0.248100 15.763506 20.126381 23.480925
7 0 3 0.053000 15.330238 20.217287 23.866264
8 0 3 0.053000 16.711851 20.267536 23.505350
9 0 3 0.053000 15.093203 19.511864 22.951807
10 0 2 0.248100 14.849039 19.785099 22.840212
11 0 3 0.053000 14.538367 19.731680 22.600643
12 0 3 0.053000 13.852825 19.471973 22.816570
13 0 3 0.053000 15.142097 19.455738 22.389601
14 0 2 0.248100 16.110359 20.937515 23.728672
15 0 3 0.053000 16.871082 21.553219 24.232500
16 0 3 0.053000 15.179482 20.829107 23.755043
17 0 3 0.053000 16.438585 20.806480 23.310532
18 0 4 -1.000000 18.521086 21.870131 24.697273
19 0 1 -0.628400 22.603409 20.529613 23.601763
20 0 2 0.248100 23.681812 21.270668 24.365065
21 0 3 0.053000 24.044130 21.327969 24.592922
22 0 3 0.053000 23.344292 21.576435 24.808844
23 0 3 0.053000 24.674704 21.608940 24.412809
24 0 2 0.248100 22.431767 20.126381 23.480925
25 0 3 0.053000 21.998501 20.217287 23.866264
26 0 3 0.053000 23.380112 20.267536 23.505350
27 0 3 0.053000 21.761463 19.511864 22.951807
28 0 2 0.248100 21.517300 19.785099 22.840212
29 0 3 0.053000 21.206629 19.731680 22.600643
30 0 3 0.053000 20.521086 19.471973 22.816570
31 0 3 0.053000 21.810358 19.455738 22.389601
32 0 2 0.248100 22.778620 20.937515 23.728672
33 0 3 0.053000 23.539343 21.553219 24.232500
34 0 3 0.053000 21.847744 20.829107 23.755043
35 0 3 0.053000 23.106846 20.806480 23.310532
36 0 4 -1.000000 25.189346 21.870131 24.697273
37 0 1 -0.628400 29.271669 20.529613 23.601763
38 0 2 0.248100 30.350075 21.270668 24.365065
39 0 3 0.053000 30.712391 21.327969 24.592922
40 0 3 0.053000 30.012552 21.576435 24.808844
41 0 3 0.053000 31.342964 21.608940 24.412809
42 0 2 0.248100 29.100029 20.126381 23.480925
43 0 3 0.053000 28.666761 20.217287 23.866264
44 0 3 0.053000 30.048372 20.267536 23.505350
45 0 3 0.053000 28.429726 19.511864 22.951807
46 0 2 0.248100 28.185560 19.785099 22.840212
47 0 3 0.053000 27.874889 19.731680 22.600643
48 0 3 0.053000 27.189346 19.471973 22.816570
49 0 3 0.053000 28.478619 19.455738 22.389601
50 0 2 0.248100 29.446880 20.937515 23.728672
51 0 3 0.053000 30.207603 21.553219 24.232500
52 0 3 0.053000 28.516005 20.829107 23.755043
53 0 3 0.053000 29.775108 20.806480 23.310532
54 0 4 -1.000000 31.857609 21.870131 24.697273
55 0 1 -0.628400 35.939934 20.529613 23.601763
56 0 2 0.248100 37.018333 21.270668 24.365065
57 0 3 0.053000 37.380653 21.327969 24.592922
58 0 3 0.053000 36.680813 21.576435 24.808844
59 0 3 0.053000 38.011227 21.608940 24.412809
60 0 2 0.248100 35.768288 20.126381 23.480925
61 0 3 0.053000 35.335022 20.217287 23.866264
62 0 3 0.053000 36.716637 20.267536 23.505350
63 0 3 0.053000 35.097984 19.511864 22.951807
64 0 2 0.248100 34.853821 19.785099 22.840212
65 0 3 0.053000 34.543152 19.731680 22.600643
66 0 3 0.053000 33.857609 19.471973 22.816570
67 0 3 0.053000 35.146881 19.455738 22.389601
68 0 2 0.248100 36.115143 20.937515 23.728672
69 0 3 0.053000 36.875866 21.553219 24.232500
70 0 3 0.053000 35.184265 20.829107 23.755043
71 0 3 0.053000 36.443367 20.806480 23.310532
72 0 4 -1.000000 38.525871 21.870131 24.697273
73 0 1 -0.628400 42.608192 20.529613 23.601763
74 0 2 0.248100 43.686596 21.270668 24.365065
75 0 3 0.053000 44.048912 21.327969 24.592922
76 0 3 0.053000 43.349075 21.576435 24.808844
77 0 3 0.053000 44.679485 21.608940 24.412809
78 0 2 0.248100 42.436550 20.126381 23.480925
79 0 3 0.053000 42.003281 20.217287 23.866264
80 0 3 0.053000 43.384895 20.267536 23.505350
81 0 3 0.053000 41.766247 19.511864 22.951807
82 0 2 0.248100 41.522083 19.785099 22.840212
83 0 3 0.053000 41.211411 19.731680 22.600643
84 0 3 0.053000 40.525871 19.471973 22.816570
85 0 3 0.053000 41.815140 19.455738 22.389601
86 0 2 0.248100 42.783401 20.937515 23.728672
87 0 3 0.053000 43.544128 21.553219 24.232500
88 0 3 0.053000 41.852524 20.829107 23.755043
89 0 3 0.053000 43.111629 20.806480 23.310532
90 0 4 -1.000000 45.194130 21.870131 24.697273
91 0 1 -0.628400 15.935148 24.944004 23.601763
92 0 2 0.248100 17.013552 25.685061 24.365065
93 0 3 0.053000 17.375870 25.742359 24.592922
94 0 3 0.053000 16.676029 25.990826 24.808844
95 0 3 0.053000 18.006443 26.023333 24.412809
96 0 2 0.248100 15.763506 24.540773 23.480925
97 0 3 0.053000 15.330238 24.631680 23.866264
98 0 3 0.053000 16.711851 24.681927 23.505350
99 0 3 0.053000 15.093203 23.926254 22.951807
100 0 2 0.248100 14.849039 24.199492 22.840212
101 0 3 0.053000 14.538367 24.146072 22.600643
102 0 3 0.053000 13.852825 23.886366 22.816570
103 0 3 0.053000 15.142097 23.870131 22.389601
104 0 2 0.248100 16.110359 25.351906 23.728672
105 0 3 0.053000 16.871082 25.967609 24.232500
106 0 3 0.053000 15.179482 25.243500 23.755043
107 0 3 0.053000 16.438585 25.220871 23.310532
108 0 4 -1.000000 18.521086 26.284523 24.697273
109 0 1 -0.628400 22.603409 24.944004 23.601763
110 0 2 0.248100 23.681812 25.685061 24.365065
111 0 3 0.053000 24.044130 25.742359 24.592922
112 0 3 0.053000 23.344292 25.990826 24.808844
113 0 3 0.053000 24.674704 26.023333 24.412809
114 0 2 0.248100 22.431767 24.540773 23.480925
115 0 3 0.053000 21.998501 24.631680 23.866264
116 0 3 0.053000 23.380112 24.681927 23.505350
117 0 3 0.053000 21.761463 23.926254 22.951807
118 0 2 0.248100 21.517300 24.199492 22.840212
119 0 3 0.053000 21.206629 24.146072 22.600643
120 0 3 0.053000 20.521086 23.886366 22.816570
121 0 3 0.053000 21.810358 23.870131 22.389601
122 0 2 0.248100 22.778620 25.351906 23.728672
123 0 3 0.053000 23.539343 25.967609 24.232500
124 0 3 0.053000 21.847744 25.243500 23.755043
125 0 3 0.053000 23.106846 25.220871 23.310532
126 0 4 -1.000000 25.189346 26.284523 24.697273
127 0 1 -0.628400 29.271669 24.944004 23.601763
128 0 2 0.248100 30.350075 25.685061 24.365065
129 0 3 0.053000 30.712391 25.742359 24.592922
130 0 3 0.053000 30.012552 25.990826 24.808844
131 0 3 0.053000 31.342964 26.023333 24.412809
132 0 2 0.248100 29.100029 24.540773 23.480925
133 0 3 0.053000 28.666761 24.631680 23.866264
134 0 3 0.053000 30.048372 24.681927 23.505350
135 0 3 0.053000 28.429726 23.926254 22.951807
136 0 2 0.248100 28.185560 24.199492 22.840212
137 0 3 0.053000 27.874889 24.146072 22.600643
138 0 3 0.053000 27.189346 23.886366 22.816570
139 0 3 0.053000 28.478619 23.870131 22.389601
140 0 2 0.248100 29.446880 25.351906 23.728672
141 0 3 0.053000 30.207603 25.967609 24.232500
142 0 3 0.053000 28.516005 25.243500 23.755043
143 0 3 0.053000 29.775108 25.220871 23.310532
144 0 4 -1.000000 31.857609 26.284523 24.697273
145 0 1 -0.628400 35.939934 24.944004 23.601763
146 0 2 0.248100 37.018333 25.685061 24.365065
147 0 3 0.053000 37.380653 25.742359 24.592922
148 0 3 0.053000 36.680813 25.990826 24.808844
149 0 3 0.053000 38.011227 26.023333 24.412809
150 0 2 0.248100 35.768288 24.540773 23.480925
151 0 3 0.053000 35.335022 24.631680 23.866264
152 0 3 0.053000 36.716637 24.681927 23.505350
153 0 3 0.053000 35.097984 23.926254 22.951807
154 0 2 0.248100 34.853821 24.199492 22.840212
155 0 3 0.053000 34.543152 24.146072 22.600643
156 0 3 0.053000 33.857609 23.886366 22.816570
157 0 3 0.053000 35.146881 23.870131 22.389601
158 0 2 0.248100 36.115143 25.351906 23.728672
159 0 3 0.053000 36.875866 25.967609 24.232500
160 0 3 0.053000 35.184265 25.243500 23.755043
161 0 3 0.053000 36.443367 25.220871 23.310532
162 0 4 -1.000000 38.525871 26.284523 24.697273
163 0 1 -0.628400 42.608192 24.944004 23.601763
164 0 2 0.248100 43.686596 25.685061 24.365065
165 0 3 0.053000 44.048912 25.742359 24.592922
166 0 3 0.053000 43.349075 25.990826 24.808844
167 0 3 0.053000 44.679485 26.023333 24.412809
168 0 2 0.248100 42.436550 24.540773 23.480925
169 0 3 0.053000 42.003281 24.631680 23.866264
170 0 3 0.053000 43.384895 24.681927 23.505350
171 0 3 0.053000 41.766247 23.926254 22.951807
172 0 2 0.248100 41.522083 24.199492 22.840212
173 0 3 0.053000 41.211411 24.146072 22.600643
174 0 3 0.053000 40.525871 23.886366 22.816570
175 0 3 0.053000 41.815140 23.870131 22.389601
176 0 2 0.248100 42.783401 25.351906 23.728672
177 0 3 0.053000 43.544128 25.967609 24.232500
178 0 3 0.053000 41.852524 25.243500 23.755043
179 0 3 0.053000 43.111629 25.220871 23.310532
180 0 4 -1.000000 45.194130 26.284523 24.697273
181 0 1 -0.628400 15.935148 29.358397 23.601763
182 0 2 0.248100 17.013552 30.099453 24.365065
183 0 3 0.053000 17.375870 30.156752 24.592922
184 0 3 0.053000 16.676029 30.405218 24.808844
185 0 3 0.053000 18.006443 30.437725 24.412809
186 0 2 0.248100 15.763506 28.955166 23.480925
187 0 3 0.053000 15.330238 29.046072 23.866264
188 0 3 0.053000 16.711851 29.096321 23.505350
189 0 3 0.053000 15.093203 28.340647 22.951807
190 0 2 0.248100 14.849039 28.613884 22.840212
191 0 3 0.053000 14.538367 28.560463 22.600643
192 0 3 0.053000 13.852825 28.300758 22.816570
193 0 3 0.053000 15.142097 28.284523 22.389601
194 0 2 0.248100 16.110359 29.766298 23.728672
195 0 3 0.053000 16.871082 30.382002 24.232500
196 0 3 0.053000 15.179482 29.657890 23.755043
197 0 3 0.053000 16.438585 29.635263 23.310532
198 0 4 -1.000000 18.521086 30.698914 24.697273
199 0 1 -0.628400 22.603409 29.358397 23.601763
200 0 2 0.248100 23.681812 30.099453 24.365065
201 0 3 0.053000 24.044130 30.156752 24.592922
202 0 3 0.053000 23.344292 30.405218 24.808844
203 0 3 0.053000 24.674704 30.437725 24.412809
204 0 2 0.248100 22.431767 28.955166 23.480925
205 0 3 0.053000 21.998501 29.046072 23.866264
206 0 3 0.053000 23.380112 29.096321 23.505350
207 0 3 0.053000 21.761463 28.340647 22.951807
208 0 2 0.248100 21.517300 28.613884 22.840212
209 0 3 0.053000 21.206629 28.560463 22.600643
210 0 3 0.053000 20.521086 28.300758 22.816570
211 0 3 0.053000 21.810358 28.284523 22.389601
212 0 2 0.248100 22.778620 29.766298 23.728672
213 0 3 0.053000 23.539343 30.382002 24.232500
214 0 3 0.053000 21.847744 29.657890 23.755043
215 0 3 0.053000 23.106846 29.635263 23.310532
216 0 4 -1.000000 25.189346 30.698914 24.697273
217 0 1 -0.628400 29.271669 29.358397 23.601763
218 0 2 0.248100 30.350075 30.099453 24.365065
219 0 3 0.053000 30.712391 30.156752 24.592922
220 0 3 0.053000 30.012552 30.405218 24.808844
221 0 3 0.053000 31.342964 30.437725 24.412809
222 0 2 0.248100 29.100029 28.955166 23.480925
223 0 3 0.053000 28.666761 29.046072 23.866264
224 0 3 0.053000 30.048372 29.096321 23.505350
225 0 3 0.053000 28.429726 28.340647 22.951807
226 0 2 0.248100 28.185560 28.613884 22.840212
227 0 3 0.053000 27.874889 28.560463 22.600643
228 0 3 0.053000 27.189346 28.300758 22.816570
229 0 3 0.053000 28.478619 28.284523 22.389601
230 0 2 0.248100 29.446880 29.766298 23.728672
231 0 3 0.053000 30.207603 30.382002 24.232500
232 0 3 0.053000 28.516005 29.657890 23.755043
233 0 3 0.053000 29.775108 29.635263 23.310532
234 0 4 -1.000000 31.857609 30.698914 24.697273
235 0 1 -0.628400 35.939934 29.358397 23.601763
236 0 2 0.248100 37.018333 30.099453 24.365065
237 0 3 0.053000 37.380653 30.156752 24.592922
238 0 3 0.053000 36.680813 30.405218 24.808844
239 0 3 0.053000 38.011227 30.437725 24.412809
240 0 2 0.248100 35.768288 28.955166 23.480925
241 0 3 0.053000 35.335022 29.046072 23.866264
242 0 3 0.053000 36.716637 29.096321 23.505350
243 0 3 0.053000 35.097984 28.340647 22.951807
244 0 2 0.248100 34.853821 28.613884 22.840212
245 0 3 0.053000 34.543152 28.560463 22.600643
246 0 3 0.053000 33.857609 28.300758 22.816570
247 0 3 0.053000 35.146881 28.284523 22.389601
248 0 2 0.248100 36.115143 29.766298 23.728672
249 0 3 0.053000 36.875866 30.382002 24.232500
250 0 3 0.053000 35.184265 29.657890 23.755043
251 0 3 0.053000 36.443367 29.635263 23.310532
252 0 4 -1.000000 38.525871 30.698914 24.697273
253 0 1 -0.628400 42.608192 29.358397 23.601763
254 0 2 0.248100 43.686596 30.099453 24.365065
255 0 3 0.053000 44.048912 30.156752 24.592922
256 0 3 0.053000 43.349075 30.405218 24.808844
257 0 3 0.053000 44.679485 30.437725 24.412809
258 0 2 0.248100 42.436550 28.955166 23.480925
259 0 3 0.053000 42.003281 29.046072 23.866264
260 0 3 0.053000 43.384895 29.096321 23.505350
261 0 3 0.053000 41.766247 28.340647 22.951807
262 0 2 0.248100 41.522083 28.613884 22.840212
263 0 3 0.053000 41.211411 28.560463 22.600643
264 0 3 0.053000 40.525871 28.300758 22.816570
265 0 3 0.053000 41.815140 28.284523 22.389601
266 0 2 0.248100 42.783401 29.766298 23.728672
267 0 3 0.053000 43.544128 30.382002 24.232500
268 0 3 0.053000 41.852524 29.657890 23.755043
269 0 3 0.053000 43.111629 29.635263 23.310532
270 0 4 -1.000000 45.194130 30.698914 24.697273
271 0 1 -0.628400 15.935148 33.772789 23.601763
272 0 2 0.248100 17.013552 34.513844 24.365065
273 0 3 0.053000 17.375870 34.571144 24.592922
274 0 3 0.053000 16.676029 34.819611 24.808844
275 0 3 0.053000 18.006443 34.852116 24.412809
276 0 2 0.248100 15.763506 33.369556 23.480925
277 0 3 0.053000 15.330238 33.460464 23.866264
278 0 3 0.053000 16.711851 33.510712 23.505350
279 0 3 0.053000 15.093203 32.755039 22.951807
280 0 2 0.248100 14.849039 33.028275 22.840212
281 0 3 0.053000 14.538367 32.974854 22.600643
282 0 3 0.053000 13.852825 32.715149 22.816570
283 0 3 0.053000 15.142097 32.698914 22.389601
284 0 2 0.248100 16.110359 34.180691 23.728672
285 0 3 0.053000 16.871082 34.796394 24.232500
286 0 3 0.053000 15.179482 34.072281 23.755043
287 0 3 0.053000 16.438585 34.049656 23.310532
288 0 4 -1.000000 18.521086 35.113304 24.697273
289 0 1 -0.628400 22.603409 33.772789 23.601763
290 0 2 0.248100 23.681812 34.513844 24.365065
291 0 3 0.053000 24.044130 34.571144 24.592922
292 0 3 0.053000 23.344292 34.819611 24.808844
293 0 3 0.053000 24.674704 34.852116 24.412809
294 0 2 0.248100 22.431767 33.369556 23.480925
295 0 3 0.053000 21.998501 33.460464 23.866264
296 0 3 0.053000 23.380112 33.510712 23.505350
297 0 3 0.053000 21.761463 32.755039 22.951807
298 0 2 0.248100 21.517300 33.028275 22.840212
299 0 3 0.053000 21.206629 32.974854 22.600643
300 0 3 0.053000 20.521086 32.715149 22.816570
301 0 3 0.053000 21.810358 32.698914 22.389601
302 0 2 0.248100 22.778620 34.180691 23.728672
303 0 3 0.053000 23.539343 34.796394 24.232500
304 0 3 0.053000 21.847744 34.072281 23.755043
305 0 3 0.053000 23.106846 34.049656 23.310532
306 0 4 -1.000000 25.189346 35.113304 24.697273
307 0 1 -0.628400 29.271669 33.772789 23.601763
308 0 2 0.248100 30.350075 34.513844 24.365065
309 0 3 0.053000 30.712391 34.571144 24.592922
310 0 3 0.053000 30.012552 34.819611 24.808844
311 0 3 0.053000 31.342964 34.852116 24.412809
312 0 2 0.248100 29.100029 33.369556 23.480925
313 0 3 0.053000 28.666761 33.460464 23.866264
314 0 3 0.053000 30.048372 33.510712 23.505350
315 0 3 0.053000 28.429726 32.755039 22.951807
316 0 2 0.248100 28.185560 33.028275 22.840212
317 0 3 0.053000 27.874889 32.974854 22.600643
318 0 3 0.053000 27.189346 32.715149 22.816570
319 0 3 0.053000 28.478619 32.698914 22.389601
320 0 2 0.248100 29.446880 34.180691 23.728672
321 0 3 0.053000 30.207603 34.796394 24.232500
322 0 3 0.053000 28.516005 34.072281 23.755043
323 0 3 0.053000 29.775108 34.049656 23.310532
324 0 4 -1.000000 31.857609 35.113304 24.697273
325 0 1 -0.628400 35.939934 33.772789 23.601763
326 0 2 0.248100 37.018333 34.513844 24.365065
327 0 3 0.053000 37.380653 34.571144 24.592922
328 0 3 0.053000 36.680813 34.819611 24.808844
329 0 3 0.053000 38.011227 34.852116 24.412809
330 0 2 0.248100 35.768288 33.369556 23.480925
331 0 3 0.053000 35.335022 33.460464 23.866264
332 0 3 0.053000 36.716637 33.510712 23.505350
333 0 3 0.053000 35.097984 32.755039 22.951807
334 0 2 0.248100 34.853821 33.028275 22.840212
335 0 3 0.053000 34.543152 32.974854 22.600643
336 0 3 0.053000 33.857609 32.715149 22.816570
337 0 3 0.053000 35.146881 32.698914 22.389601
338 0 2 0.248100 36.115143 34.180691 23.728672
339 0 3 0.053000 36.875866 34.796394 24.232500
340 0 3 0.053000 35.184265 34.072281 23.755043
341 0 3 0.053000 36.443367 34.049656 23.310532
342 0 4 -1.000000 38.525871 35.113304 24.697273
343 0 1 -0.628400 42.608192 33.772789 23.601763
344 0 2 0.248100 43.686596 34.513844 24.365065
345 0 3 0.053000 44.048912 34.571144 24.592922
346 0 3 0.053000 43.349075 34.819611 24.808844
347 0 3 0.053000 44.679485 34.852116 24.412809
348 0 2 0.248100 42.436550 33.369556 23.480925
349 0 3 0.053000 42.003281 33.460464 23.866264
350 0 3 0.053000 43.384895 33.510712 23.505350
351 0 3 0.053000 41.766247 32.755039 22.951807
352 0 2 0.248100 41.522083 33.028275 22.840212
353 0 3 0.053000 41.211411 32.974854 22.600643
354 0 3 0.053000 40.525871 32.715149 22.816570
355 0 3 0.053000 41.815140 32.698914 22.389601
356 0 2 0.248100 42.783401 34.180691 23.728672
357 0 3 0.053000 43.544128 34.796394 24.232500
358 0 3 0.053000 41.852524 34.072281 23.755043
359 0 3 0.053000 43.111629 34.049656 23.310532
360 0 4 -1.000000 45.194130 35.113304 24.697273
361 0 1 -0.628400 15.935148 38.187180 23.601763
362 0 2 0.248100 17.013552 38.928238 24.365065
363 0 3 0.053000 17.375870 38.985535 24.592922
364 0 3 0.053000 16.676029 39.234001 24.808844
365 0 3 0.053000 18.006443 39.266510 24.412809
366 0 2 0.248100 15.763506 37.783951 23.480925
367 0 3 0.053000 15.330238 37.874855 23.866264
368 0 3 0.053000 16.711851 37.925102 23.505350
369 0 3 0.053000 15.093203 37.169434 22.951807
370 0 2 0.248100 14.849039 37.442665 22.840212
371 0 3 0.053000 14.538367 37.389248 22.600643
372 0 3 0.053000 13.852825 37.129539 22.816570
373 0 3 0.053000 15.142097 37.113304 22.389601
374 0 2 0.248100 16.110359 38.595085 23.728672
375 0 3 0.053000 16.871082 39.210785 24.232500
376 0 3 0.053000 15.179482 38.486675 23.755043
377 0 3 0.053000 16.438585 38.464050 23.310532
378 0 4 -1.000000 18.521086 39.527699 24.697273
379 0 1 -0.628400 22.603409 38.187180 23.601763
380 0 2 0.248100 23.681812 38.928238 24.365065
381 0 3 0.053000 24.044130 38.985535 24.592922
382 0 3 0.053000 23.344292 39.234001 24.808844
383 0 3 0.053000 24.674704 39.266510 24.412809
384 0 2 0.248100 22.431767 37.783951 23.480925
385 0 3 0.053000 21.998501 37.874855 23.866264
386 0 3 0.053000 23.380112 37.925102 23.505350
387 0 3 0.053000 21.761463 37.169434 22.951807
388 0 2 0.248100 21.517300 37.442665 22.840212
389 0 3 0.053000 21.206629 37.389248 22.600643
390 0 3 0.053000 20.521086 37.129539 22.816570
391 0 3 0.053000 21.810358 37.113304 22.389601
392 0 2 0.248100 22.778620 38.595085 23.728672
393 0 3 0.053000 23.539343 39.210785 24.232500
394 0 3 0.053000 21.847744 38.486675 23.755043
395 0 3 0.053000 23.106846 38.464050 23.310532
396 0 4 -1.000000 25.189346 39.527699 24.697273
397 0 1 -0.628400 29.271669 38.187180 23.601763
398 0 2 0.248100 30.350075 38.928238 24.365065
399 0 3 0.053000 30.712391 38.985535 24.592922
400 0 3 0.053000 30.012552 39.234001 24.808844
401 0 3 0.053000 31.342964 39.266510 24.412809
402 0 2 0.248100 29.100029 37.783951 23.480925
403 0 3 0.053000 28.666761 37.874855 23.866264
404 0 3 0.053000 30.048372 37.925102 23.505350
405 0 3 0.053000 28.429726 37.169434 22.951807
406 0 2 0.248100 28.185560 37.442665 22.840212
407 0 3 0.053000 27.874889 37.389248 22.600643
408 0 3 0.053000 27.189346 37.129539 22.816570
409 0 3 0.053000 28.478619 37.113304 22.389601
410 0 2 0.248100 29.446880 38.595085 23.728672
411 0 3 0.053000 30.207603 39.210785 24.232500
412 0 3 0.053000 28.516005 38.486675 23.755043
413 0 3 0.053000 29.775108 38.464050 23.310532
414 0 4 -1.000000 31.857609 39.527699 24.697273
415 0 1 -0.628400 35.939934 38.187180 23.601763
416 0 2 0.248100 37.018333 38.928238 24.365065
417 0 3 0.053000 37.380653 38.985535 24.592922
418 0 3 0.053000 36.680813 39.234001 24.808844
419 0 3 0.053000 38.011227 39.266510 24.412809
420 0 2 0.248100 35.768288 37.783951 23.480925
421 0 3 0.053000 35.335022 37.874855 23.866264
422 0 3 0.053000 36.716637 37.925102 23.505350
423 0 3 0.053000 35.097984 37.169434 22.951807
424 0 2 0.248100 34.853821 37.442665 22.840212
425 0 3 0.053000 34.543152 37.389248 22.600643
426 0 3 0.053000 33.857609 37.129539 22.816570
427 0 3 0.053000 35.146881 37.113304 22.389601
428 0 2 0.248100 36.115143 38.595085 23.728672
429 0 3 0.053000 36.875866 39.210785 24.232500
430 0 3 0.053000 35.184265 38.486675 23.755043
431 0 3 0.053000 36.443367 38.464050 23.310532
432 0 4 -1.000000 38.525871 39.527699 24.697273
433 0 1 -0.628400 42.608192 38.187180 23.601763
434 0 2 0.248100 43.686596 38.928238 24.365065
435 0 3 0.053000 44.048912 38.985535 24.592922
436 0 3 0.053000 43.349075 39.234001 24.808844
437 0 3 0.053000 44.679485 39.266510 24.412809
438 0 2 0.248100 42.436550 37.783951 23.480925
439 0 3 0.053000 42.003281 37.874855 23.866264
440 0 3 0.053000 43.384895 37.925102 23.505350
441 0 3 0.053000 41.766247 37.169434 22.951807
442 0 2 0.248100 41.522083 37.442665 22.840212
443 0 3 0.053000 41.211411 37.389248 22.600643
444 0 3 0.053000 40.525871 37.129539 22.816570
445 0 3 0.053000 41.815140 37.113304 22.389601
446 0 2 0.248100 42.783401 38.595085 23.728672
447 0 3 0.053000 43.544128 39.210785 24.232500
448 0 3 0.053000 41.852524 38.486675 23.755043
449 0 3 0.053000 43.111629 38.464050 23.310532
450 0 4 -1.000000 45.194130 39.527699 24.697273
451 0 1 -0.628400 15.935148 20.529613 28.021006
452 0 2 0.248100 17.013552 21.270668 28.784307
453 0 3 0.053000 17.375870 21.327969 29.012165
454 0 3 0.053000 16.676029 21.576435 29.228085
455 0 3 0.053000 18.006443 21.608940 28.832050
456 0 2 0.248100 15.763506 20.126381 27.900166
457 0 3 0.053000 15.330238 20.217287 28.285507
458 0 3 0.053000 16.711851 20.267536 27.924591
459 0 3 0.053000 15.093203 19.511864 27.371050
460 0 2 0.248100 14.849039 19.785099 27.259453
461 0 3 0.053000 14.538367 19.731680 27.019886
462 0 3 0.053000 13.852825 19.471973 27.235813
463 0 3 0.053000 15.142097 19.455738 26.808844
464 0 2 0.248100 16.110359 20.937515 28.147915
465 0 3 0.053000 16.871082 21.553219 28.651741
466 0 3 0.053000 15.179482 20.829107 28.174286
467 0 3 0.053000 16.438585 20.806480 27.729774
468 0 4 -1.000000 18.521086 21.870131 29.116516
469 0 1 -0.628400 22.603409 20.529613 28.021006
470 0 2 0.248100 23.681812 21.270668 28.784307
471 0 3 0.053000 24.044130 21.327969 29.012165
472 0 3 0.053000 23.344292 21.576435 29.228085
473 0 3 0.053000 24.674704 21.608940 28.832050
474 0 2 0.248100 22.431767 20.126381 27.900166
475 0 3 0.053000 21.998501 20.217287 28.285507
476 0 3 0.053000 23.380112 20.267536 27.924591
477 0 3 0.053000 21.761463 19.511864 27.371050
478 0 2 0.248100 21.517300 19.785099 27.259453
479 0 3 0.053000 21.206629 19.731680 27.019886
480 0 3 0.053000 20.521086 19.471973 27.235813
481 0 3 0.053000 21.810358 19.455738 26.808844
482 0 2 0.248100 22.778620 20.937515 28.147915
483 0 3 0.053000 23.539343 21.553219 28.651741
484 0 3 0.053000 21.847744 20.829107 28.174286
485 0 3 0.053000 23.106846 20.806480 27.729774
486 0 4 -1.000000 25.189346 21.870131 29.116516
487 0 1 -0.628400 29.271669 20.529613 28.021006
488 0 2 0.248100 30.350075 21.270668 28.784307
489 0 3 0.053000 30.712391 21.327969 29.012165
490 0 3 0.053000 30.012552 21.576435 29.228085
491 0 3 0.053000 31.342964 21.608940 28.832050
492 0 2 0.248100 29.100029 20.126381 27.900166
493 0 3 0.053000 28.666761 20.217287 28.285507
494 0 3 0.053000 30.048372 20.267536 27.924591
495 0 3 0.053000 28.429726 19.511864 27.371050
496 0 2 0.248100 28.185560 19.785099 27.259453
497 0 3 0.053000 27.874889 19.731680 27.019886
498 0 3 0.053000 27.189346 19.471973 27.235813
499 0 3 0.053000 28.478619 19.455738 26.808844
500 0 2 0.248100 29.446880 20.937515 28.147915
501 0 3 0.053000 30.207603 21.553219 28.651741
502 0 3 0.053000 28.516005 20.829107 28.174286
503 0 3 0.053000 29.775108 20.806480 27.729774
504 0 4 -1.000000 31.857609 21.870131 29.116516
505 0 1 -0.628400 35.939934 20.529613 28.021006
506 0 2 0.248100 37.018333 21.270668 28.784307
507 0 3 0.053000 37.380653 21.327969 29.012165
508 0 3 0.053000 36.680813 21.576435 29.228085
509 0 3 0.053000 38.011227 21.608940 28.832050
510 0 2 0.248100 35.768288 20.126381 27.900166
511 0 3 0.053000 35.335022 20.217287 28.285507
512 0 3 0.053000 36.716637 20.267536 27.924591
513 0 3 0.053000 35.097984 19.511864 27.371050
514 0 2 0.248100 34.853821 19.785099 27.259453
515 0 3 0.053000 34.543152 19.731680 27.019886
516 0 3 0.053000 33.857609 19.471973 27.235813
517 0 3 0.053000 35.146881 19.455738 26.808844
518 0 2 0.248100 36.115143 20.937515 28.147915
519 0 3 0.053000 36.875866 21.553219 28.651741
520 0 3 0.053000 35.184265 20.829107 28.174286
521 0 3 0.053000 36.443367 20.806480 27.729774
522 0 4 -1.000000 38.525871 21.870131 29.116516
523 0 1 -0.628400 42.608192 20.529613 28.021006
524 0 2 0.248100 43.686596 21.270668 28.784307
525 0 3 0.053000 44.048912 21.327969 29.012165
526 0 3 0.053000 43.349075 21.576435 29.228085
527 0 3 0.053000 44.679485 21.608940 28.832050
528 0 2 0.248100 42.436550 20.126381 27.900166
529 0 3 0.053000 42.003281 20.217287 28.285507
530 0 3 0.053000 43.384895 20.267536 27.924591
531 0 3 0.053000 41.766247 19.511864 27.371050
532 0 2 0.248100 41.522083 19.785099 27.259453
533 0 3 0.053000 41.211411 19.731680 27.019886
534 0 3 0.053000 40.525871 19.471973 27.235813
535 0 3 0.053000 41.815140 19.455738 26.808844
536 0 2 0.248100 42.783401 20.937515 28.147915
537 0 3 0.053000 43.544128 21.553219 28.651741
538 0 3 0.053000 41.852524 20.829107 28.174286
539 0 3 0.053000 43.111629 20.806480 27.729774
540 0 4 -1.000000 45.194130 21.870131 29.116516
541 0 1 -0.628400 15.935148 24.944004 28.021006
542 0 2 0.248100 17.013552 25.685061 28.784307
543 0 3 0.053000 17.375870 25.742359 29.012165
544 0 3 0.053000 16.676029 25.990826 29.228085
545 0 3 0.053000 18.006443 26.023333 28.832050
546 0 2 0.248100 15.763506 24.540773 27.900166
547 0 3 0.053000 15.330238 24.631680 28.285507
548 0 3 0.053000 16.711851 24.681927 27.924591
549 0 3 0.053000 15.093203 23.926254 27.371050
550 0 2 0.248100 14.849039 24.199492 27.259453
551 0 3 0.053000 14.538367 24.146072 27.019886
552 0 3 0.053000 13.852825 23.886366 27.235813
553 0 3 0.053000 15.142097 23.870131 26.808844
554 0 2 0.248100 16.110359 25.351906 28.147915
555 0 3 0.053000 16.871082 25.967609 28.651741
556 0 3 0.053000 15.179482 25.243500 28.174286
557 0 3 0.053000 16.438585 25.220871 27.729774
558 0 4 -1.000000 18.521086 26.284523 29.116516
559 0 1 -0.628400 22.603409 24.944004 28.021006
560 0 2 0.248100 23.681812 25.685061 28.784307
561 0 3 0.053000 24.044130 25.742359 29.012165
562 0 3 0.053000 23.344292 25.990826 29.228085
563 0 3 0.053000 24.674704 26.023333 28.832050
564 0 2 0.248100 22.431767 24.540773 27.900166
565 0 3 0.053000 21.998501 24.631680 28.285507
566 0 3 0.053000 23.380112 24.681927 27.924591
567 0 3 0.053000 21.761463 23.926254 27.371050
568 0 2 0.248100 21.517300 24.199492 27.259453
569 0 3 0.053000 21.206629 24.146072 27.019886
570 0 3 0.053000 20.521086 23.886366 27.235813
571 0 3 0.053000 21.810358 23.870131 26.808844
572 0 2 0.248100 22.778620 25.351906 28.147915
573 0 3 0.053000 23.539343 25.967609 28.651741
574 0 3 0.053000 21.847744 25.243500 28.174286
575 0 3 0.053000 23.106846 25.220871 27.729774
576 0 4 -1.000000 25.189346 26.284523 29.116516
577 0 1 -0.628400 29.271669 24.944004 28.021006
578 0 2 0.248100 30.350075 25.685061 28.784307
579 0 3 0.053000 30.712391 25.742359 29.012165
580 0 3 0.053000 30.012552 25.990826 29.228085
581 0 3 0.053000 31.342964 26.023333 28.832050
582 0 2 0.248100 29.100029 24.540773 27.900166
583 0 3 0.053000 28.666761 24.631680 28.285507
584 0 3 0.053000 30.048372 24.681927 27.924591
585 0 3 0.053000 28.429726 23.926254 27.371050
586 0 2 0.248100 28.185560 24.199492 27.259453
587 0 3 0.053000 27.874889 24.146072 27.019886
588 0 3 0.053000 27.189346 23.886366 27.235813
589 0 3 0.053000 28.478619 23.870131 26.808844
590 0 2 0.248100 29.446880 25.351906 28.147915
591 0 3 0.053000 30.207603 25.967609 28.651741
592 0 3 0.053000 28.516005 25.243500 28.174286
593 0 3 0.053000 29.775108 25.220871 27.729774
594 0 4 -1.000000 31.857609 26.284523 29.116516
595 0 1 -0.628400 35.939934 24.944004 28.021006
596 0 2 0.248100 37.018333 25.685061 28.784307
597 0 3 0.053000 37.380653 25.742359 29.012165
598 0 3 0.053000 36.680813 25.990826 29.228085
599 0 3 0.053000 38.011227 26.023333 28.832050
600 0 2 0.248100 35.768288 24.540773 27.900166
601 0 3 0.053000 35.335022 24.631680 28.285507
602 0 3 0.053000 36.716637 24.681927 27.924591
603 0 3 0.053000 35.097984 23.926254 27.371050
604 0 2 0.248100 34.853821 24.199492 27.259453
605 0 3 0.053000 34.543152 24.146072 27.019886
606 0 3 0.053000 33.857609 23.886366 27.235813
607 0 3 0.053000 35.146881 23.870131 26.808844
608 0 2 0.248100 36.115143 25.351906 28.147915
609 0 3 0.053000 36.875866 25.967609 28.651741
610 0 3 0.053000 35.184265 25.243500 28.174286
611 0 3 0.053000 36.443367 25.220871 27.729774
612 0 4 -1.000000 38.525871 26.284523 29.116516
613 0 1 -0.628400 42.608192 24.944004 28.021006
614 0 2 0.248100 43.686596 25.685061 28.784307
615 0 3 0.053000 44.048912 25.742359 29.012165
616 0 3 0.053000 43.349075 25.990826 29.228085
617 0 3 0.053000 44.679485 26.023333 28.832050
618 0 2 0.248100 42.436550 24.540773 27.900166
619 0 3 0.053000 42.003281 24.631680 28.285507
620 0 3 0.053000 43.384895 24.681927 27.924591
621 0 3 0.053000 41.766247 23.926254 27.371050
622 0 2 0.248100 41.522083 24.199492 27.259453
623 0 3 0.053000 41.211411 24.146072 27.019886
624 0 3 0.053000 40.525871 23.886366 27.235813
625 0 3 0.053000 41.815140 23.870131 26.808844
626 0 2 0.248100 42.783401 25.351906 28.147915
627 0 3 0.053000 43.544128 25.967609 28.651741
628 0 3 0.053000 41.852524 25.243500 28.174286
629 0 3 0.053000 43.111629 25.220871 27.729774
630 0 4 -1.000000 45.194130 26.284523 29.116516
631 0 1 -0.628400 15.935148 29.358397 28.021006