LAMMPS data file containing the original structures and the polarizable gold

10530 atoms
6665 bonds
6000 angles
7200 dihedrals
0 impropers

6 atom types
3 bond types
3 angle types
1 dihedral types

-3.000000 62.014999 xlo xhi
-3.000000 61.997501 ylo yhi
-3.000000 49.905056 zlo zhi

Masses

1 14.006700
2 12.011150
3 1.007970
4 79.908997
5 195.960000
6 1.000000

Atoms

1 0 1 -0.628400 12.734465 18.896309 23.601763
2 0 2 0.248100 13.812868 19.637363 24.365065
3 0 3 0.053000 14.175186 19.694664 24.592922
4 0 3 0.053000 13.475346 19.943130 24.808844
5 0 3 0.053000 14.805758 19.975636 24.412809
6 0 2 0.248100 12.562822 18.493076 23.480925
7 0 3 0.053000 12.129555 18.583982 23.866264
8 0 3 0.053000 13.511168 18.634232 23.505350
9 0 3 0.053000 11.892519 17.878559 22.951807
10 0 2 0.248100 11.648355 18.151794 22.840212
11 0 3 0.053000 11.337684 18.098375 22.600643
12 0 3 0.053000 10.652142 17.838669 22.816570
13 0 3 0.053000 11.941413 17.822433 22.389601
14 0 2 0.248100 12.909675 19.304211 23.728672
15 0 3 0.053000 13.670399 19.919914 24.232500
16 0 3 0.053000 11.978798 19.195803 23.755043
17 0 3 0.053000 13.237902 19.173176 23.310532
18 0 4 -1.000000 15.320402 20.236826 24.697273
19 0 1 -0.628400 19.402725 18.896309 23.601763
20 0 2 0.248100 20.481129 19.637363 24.365065
21 0 3 0.053000 20.843447 19.694664 24.592922
22 0 3 0.053000 20.143608 19.943130 24.808844
23 0 3 0.053000 21.474020 19.975636 24.412809
24 0 2 0.248100 19.231083 18.493076 23.480925
25 0 3 0.053000 18.797817 18.583982 23.866264
26 0 3 0.053000 20.179428 18.634232 23.505350
27 0 3 0.053000 18.560780 17.878559 22.951807
28 0 2 0.248100 18.316616 18.151794 22.840212
29 0 3 0.053000 18.005945 18.098375 22.600643
30 0 3 0.053000 17.320402 17.838669 22.816570
31 0 3 0.053000 18.609674 17.822433 22.389601
32 0 2 0.248100 19.577936 19.304211 23.728672
33 0 3 0.053000 20.338659 19.919914 24.232500
34 0 3 0.053000 18.647060 19.195803 23.755043
35 0 3 0.053000 19.906162 19.173176 23.310532
36 0 4 -1.000000 21.988663 20.236826 24.697273
37 0 1 -0.628400 26.070986 18.896309 23.601763
38 0 2 0.248100 27.149391 19.637363 24.365065
39 0 3 0.053000 27.511707 19.694664 24.592922
40 0 3 0.053000 26.811869 19.943130 24.808844
41 0 3 0.053000 28.142281 19.975636 24.412809
42 0 2 0.248100 25.899345 18.493076 23.480925
43 0 3 0.053000 25.466078 18.583982 23.866264
44 0 3 0.053000 26.847689 18.634232 23.505350
45 0 3 0.053000 25.229042 17.878559 22.951807
46 0 2 0.248100 24.984877 18.151794 22.840212
47 0 3 0.053000 24.674206 18.098375 22.600643
48 0 3 0.053000 23.988663 17.838669 22.816570
49 0 3 0.053000 25.277935 17.822433 22.389601
50 0 2 0.248100 26.246197 19.304211 23.728672
51 0 3 0.053000 27.006920 19.919914 24.232500
52 0 3 0.053000 25.315321 19.195803 23.755043
53 0 3 0.053000 26.574425 19.173176 23.310532
54 0 4 -1.000000 28.656925 20.236826 24.697273
55 0 1 -0.628400 32.739250 18.896309 23.601763
56 0 2 0.248100 33.817650 19.637363 24.365065
57 0 3 0.053000 34.179970 19.694664 24.592922
58 0 3 0.053000 33.480129 19.943130 24.808844
59 0 3 0.053000 34.810543 19.975636 24.412809
60 0 2 0.248100 32.567604 18.493076 23.480925
61 0 3 0.053000 32.134338 18.583982 23.866264
62 0 3 0.053000 33.515953 18.634232 23.505350
63 0 3 0.053000 31.897303 17.878559 22.951807
64 0 2 0.248100 31.653139 18.151794 22.840212
65 0 3 0.053000 31.342466 18.098375 22.600643
66 0 3 0.053000 30.656925 17.838669 22.816570
67 0 3 0.053000 31.946198 17.822433 22.389601
68 0 2 0.248100 32.914459 19.304211 23.728672
69 0 3 0.053000 33.675182 19.919914 24.232500
70 0 3 0.053000 31.983582 19.195803 23.755043
71 0 3 0.053000 33.242683 19.173176 23.310532
72 0 4 -1.000000 35.325188 20.236826 24.697273
73 0 1 -0.628400 39.407509 18.896309 23.601763
74 0 2 0.248100 40.485912 19.637363 24.365065
75 0 3 0.053000 40.848228 19.694664 24.592922
76 0 3 0.053000 40.148392 19.943130 24.808844
77 0 3 0.053000 41.478802 19.975636 24.412809
78 0 2 0.248100 39.235867 18.493076 23.480925
79 0 3 0.053000 38.802597 18.583982 23.866264
80 0 3 0.053000 40.184212 18.634232 23.505350
81 0 3 0.053000 38.565563 17.878559 22.951807
82 0 2 0.248100 38.321400 18.151794 22.840212
83 0 3 0.053000 38.010727 18.098375 22.600643
84 0 3 0.053000 37.325188 17.838669 22.816570
85 0 3 0.053000 38.614456 17.822433 22.389601
86 0 2 0.248100 39.582718 19.304211 23.728672
87 0 3 0.053000 40.343445 19.919914 24.232500
88 0 3 0.053000 38.651840 19.195803 23.755043
89 0 3 0.053000 39.910946 19.173176 23.310532
90 0 4 -1.000000 41.993446 20.236826 24.697273
91 0 1 -0.628400 46.075768 18.896309 23.601763
92 0 2 0.248100 47.154175 19.637363 24.365065
93 0 3 0.053000 47.516491 19.694664 24.592922
94 0 3 0.053000 46.816650 19.943130 24.808844
95 0 3 0.053000 48.147064 19.975636 24.412809
96 0 2 0.248100 45.904125 18.493076 23.480925
97 0 3 0.053000 45.470860 18.583982 23.866264
98 0 3 0.053000 46.852470 18.634232 23.505350
99 0 3 0.053000 45.233826 17.878559 22.951807
100 0 2 0.248100 44.989658 18.151794 22.840212
101 0 3 0.053000 44.678989 18.098375 22.600643
102 0 3 0.053000 43.993446 17.838669 22.816570
103 0 3 0.053000 45.282719 17.822433 22.389601
104 0 2 0.248100 46.250980 19.304211 23.728672
105 0 3 0.053000 47.011703 19.919914 24.232500
106 0 3 0.053000 45.320103 19.195803 23.755043
107 0 3 0.053000 46.579208 19.173176 23.310532
108 0 4 -1.000000 48.661709 20.236826 24.697273
109 0 1 -0.628400 12.734465 23.310699 23.601763
110 0 2 0.248100 13.812868 24.051756 24.365065
111 0 3 0.053000 14.175186 24.109055 24.592922
112 0 3 0.053000 13.475346 24.357521 24.808844
113 0 3 0.053000 14.805758 24.390028 24.412809
114 0 2 0.248100 12.562822 22.907469 23.480925
115 0 3 0.053000 12.129555 22.998375 23.866264
116 0 3 0.053000 13.511168 23.048622 23.505350
117 0 3 0.053000 11.892519 22.292950 22.951807
118 0 2 0.248100 11.648355 22.566187 22.840212
119 0 3 0.053000 11.337684 22.512768 22.600643
120 0 3 0.053000 10.652142 22.253061 22.816570
121 0 3 0.053000 11.941413 22.236826 22.389601
122 0 2 0.248100 12.909675 23.718601 23.728672
123 0 3 0.053000 13.670399 24.334305 24.232500
124 0 3 0.053000 11.978798 23.610195 23.755043
125 0 3 0.053000 13.237902 23.587566 23.310532
126 0 4 -1.000000 15.320402 24.651218 24.697273
127 0 1 -0.628400 19.402725 23.310699 23.601763
128 0 2 0.248100 20.481129 24.051756 24.365065
129 0 3 0.053000 20.843447 24.109055 24.592922
130 0 3 0.053000 20.143608 24.357521 24.808844
131 0 3 0.053000 21.474020 24.390028 24.412809
132 0 2 0.248100 19.231083 22.907469 23.480925
133 0 3 0.053000 18.797817 22.998375 23.866264
134 0 3 0.053000 20.179428 23.048622 23.505350
135 0 3 0.053000 18.560780 22.292950 22.951807
136 0 2 0.248100 18.316616 22.566187 22.840212
137 0 3 0.053000 18.005945 22.512768 22.600643
138 0 3 0.053000 17.320402 22.253061 22.816570
139 0 3 0.053000 18.609674 22.236826 22.389601
140 0 2 0.248100 19.577936 23.718601 23.728672
141 0 3 0.053000 20.338659 24.334305 24.232500
142 0 3 0.053000 18.647060 23.610195 23.755043
143 0 3 0.053000 19.906162 23.587566 23.310532
144 0 4 -1.000000 21.988663 24.651218 24.697273
145 0 1 -0.628400 26.070986 23.310699 23.601763
146 0 2 0.248100 27.149391 24.051756 24.365065
147 0 3 0.053000 27.511707 24.109055 24.592922
148 0 3 0.053000 26.811869 24.357521 24.808844
149 0 3 0.053000 28.142281 24.390028 24.412809
150 0 2 0.248100 25.899345 22.907469 23.480925
151 0 3 0.053000 25.466078 22.998375 23.866264
152 0 3 0.053000 26.847689 23.048622 23.505350
153 0 3 0.053000 25.229042 22.292950 22.951807
154 0 2 0.248100 24.984877 22.566187 22.840212
155 0 3 0.053000 24.674206 22.512768 22.600643
156 0 3 0.053000 23.988663 22.253061 22.816570
157 0 3 0.053000 25.277935 22.236826 22.389601
158 0 2 0.248100 26.246197 23.718601 23.728672
159 0 3 0.053000 27.006920 24.334305 24.232500
160 0 3 0.053000 25.315321 23.610195 23.755043
161 0 3 0.053000 26.574425 23.587566 23.310532
162 0 4 -1.000000 28.656925 24.651218 24.697273
163 0 1 -0.628400 32.739250 23.310699 23.601763
164 0 2 0.248100 33.817650 24.051756 24.365065
165 0 3 0.053000 34.179970 24.109055 24.592922
166 0 3 0.053000 33.480129 24.357521 24.808844
167 0 3 0.053000 34.810543 24.390028 24.412809
168 0 2 0.248100 32.567604 22.907469 23.480925
169 0 3 0.053000 32.134338 22.998375 23.866264
170 0 3 0.053000 33.515953 23.048622 23.505350
171 0 3 0.053000 31.897303 22.292950 22.951807
172 0 2 0.248100 31.653139 22.566187 22.840212
173 0 3 0.053000 31.342466 22.512768 22.600643
174 0 3 0.053000 30.656925 22.253061 22.816570
175 0 3 0.053000 31.946198 22.236826 22.389601
176 0 2 0.248100 32.914459 23.718601 23.728672
177 0 3 0.053000 33.675182 24.334305 24.232500
178 0 3 0.053000 31.983582 23.610195 23.755043
179 0 3 0.053000 33.242683 23.587566 23.310532
180 0 4 -1.000000 35.325188 24.651218 24.697273
181 0 1 -0.628400 39.407509 23.310699 23.601763
182 0 2 0.248100 40.485912 24.051756 24.365065
183 0 3 0.053000 40.848228 24.109055 24.592922
184 0 3 0.053000 40.148392 24.357521 24.808844
185 0 3 0.053000 41.478802 24.390028 24.412809
186 0 2 0.248100 39.235867 22.907469 23.480925
187 0 3 0.053000 38.802597 22.998375 23.866264
188 0 3 0.053000 40.184212 23.048622 23.505350
189 0 3 0.053000 38.565563 22.292950 22.951807
190 0 2 0.248100 38.321400 22.566187 22.840212
191 0 3 0.053000 38.010727 22.512768 22.600643
192 0 3 0.053000 37.325188 22.253061 22.816570
193 0 3 0.053000 38.614456 22.236826 22.389601
194 0 2 0.248100 39.582718 23.718601 23.728672
195 0 3 0.053000 40.343445 24.334305 24.232500
196 0 3 0.053000 38.651840 23.610195 23.755043
197 0 3 0.053000 39.910946 23.587566 23.310532
198 0 4 -1.000000 41.993446 24.651218 24.697273
199 0 1 -0.628400 46.075768 23.310699 23.601763
200 0 2 0.248100 47.154175 24.051756 24.365065
201 0 3 0.053000 47.516491 24.109055 24.592922
202 0 3 0.053000 46.816650 24.357521 24.808844
203 0 3 0.053000 48.147064 24.390028 24.412809
204 0 2 0.248100 45.904125 22.907469 23.480925
205 0 3 0.053000 45.470860 22.998375 23.866264
206 0 3 0.053000 46.852470 23.048622 23.505350
207 0 3 0.053000 45.233826 22.292950 22.951807
208 0 2 0.248100 44.989658 22.566187 22.840212
209 0 3 0.053000 44.678989 22.512768 22.600643
210 0 3 0.053000 43.993446 22.253061 22.816570
211 0 3 0.053000 45.282719 22.236826 22.389601
212 0 2 0.248100 46.250980 23.718601 23.728672
213 0 3 0.053000 47.011703 24.334305 24.232500
214 0 3 0.053000 45.320103 23.610195 23.755043
215 0 3 0.053000 46.579208 23.587566 23.310532
216 0 4 -1.000000 48.661709 24.651218 24.697273
217 0 1 -0.628400 12.734465 27.725092 23.601763
218 0 2 0.248100 13.812868 28.466148 24.365065
219 0 3 0.053000 14.175186 28.523447 24.592922
220 0 3 0.053000 13.475346 28.771914 24.808844
221 0 3 0.053000 14.805758 28.804420 24.412809
222 0 2 0.248100 12.562822 27.321861 23.480925
223 0 3 0.053000 12.129555 27.412767 23.866264
224 0 3 0.053000 13.511168 27.463017 23.505350
225 0 3 0.053000 11.892519 26.707342 22.951807
226 0 2 0.248100 11.648355 26.980579 22.840212
227 0 3 0.053000 11.337684 26.927158 22.600643
228 0 3 0.053000 10.652142 26.667454 22.816570
229 0 3 0.053000 11.941413 26.651218 22.389601
230 0 2 0.248100 12.909675 28.132994 23.728672
231 0 3 0.053000 13.670399 28.748697 24.232500
232 0 3 0.053000 11.978798 28.024586 23.755043
233 0 3 0.053000 13.237902 28.001959 23.310532
234 0 4 -1.000000 15.320402 29.065609 24.697273
235 0 1 -0.628400 19.402725 27.725092 23.601763
236 0 2 0.248100 20.481129 28.466148 24.365065
237 0 3 0.053000 20.843447 28.523447 24.592922
238 0 3 0.053000 20.143608 28.771914 24.808844
239 0 3 0.053000 21.474020 28.804420 24.412809
240 0 2 0.248100 19.231083 27.321861 23.480925
241 0 3 0.053000 18.797817 27.412767 23.866264
242 0 3 0.053000 20.179428 27.463017 23.505350
243 0 3 0.053000 18.560780 26.707342 22.951807
244 0 2 0.248100 18.316616 26.980579 22.840212
245 0 3 0.053000 18.005945 26.927158 22.600643
246 0 3 0.053000 17.320402 26.667454 22.816570
247 0 3 0.053000 18.609674 26.651218 22.389601
248 0 2 0.248100 19.577936 28.132994 23.728672
249 0 3 0.053000 20.338659 28.748697 24.232500
250 0 3 0.053000 18.647060 28.024586 23.755043
251 0 3 0.053000 19.906162 28.001959 23.310532
252 0 4 -1.000000 21.988663 29.065609 24.697273
253 0 1 -0.628400 26.070986 27.725092 23.601763
254 0 2 0.248100 27.149391 28.466148 24.365065
255 0 3 0.053000 27.511707 28.523447 24.592922
256 0 3 0.053000 26.811869 28.771914 24.808844
257 0 3 0.053000 28.142281 28.804420 24.412809
258 0 2 0.248100 25.899345 27.321861 23.480925
259 0 3 0.053000 25.466078 27.412767 23.866264
260 0 3 0.053000 26.847689 27.463017 23.505350
261 0 3 0.053000 25.229042 26.707342 22.951807
262 0 2 0.248100 24.984877 26.980579 22.840212
263 0 3 0.053000 24.674206 26.927158 22.600643
264 0 3 0.053000 23.988663 26.667454 22.816570
265 0 3 0.053000 25.277935 26.651218 22.389601
266 0 2 0.248100 26.246197 28.132994 23.728672
267 0 3 0.053000 27.006920 28.748697 24.232500
268 0 3 0.053000 25.315321 28.024586 23.755043
269 0 3 0.053000 26.574425 28.001959 23.310532
270 0 4 -1.000000 28.656925 29.065609 24.697273
271 0 1 -0.628400 32.739250 27.725092 23.601763
272 0 2 0.248100 33.817650 28.466148 24.365065
273 0 3 0.053000 34.179970 28.523447 24.592922
274 0 3 0.053000 33.480129 28.771914 24.808844
275 0 3 0.053000 34.810543 28.804420 24.412809
276 0 2 0.248100 32.567604 27.321861 23.480925
277 0 3 0.053000 32.134338 27.412767 23.866264
278 0 3 0.053000 33.515953 27.463017 23.505350
279 0 3 0.053000 31.897303 26.707342 22.951807
280 0 2 0.248100 31.653139 26.980579 22.840212
281 0 3 0.053000 31.342466 26.927158 22.600643
282 0 3 0.053000 30.656925 26.667454 22.816570
283 0 3 0.053000 31.946198 26.651218 22.389601
284 0 2 0.248100 32.914459 28.132994 23.728672
285 0 3 0.053000 33.675182 28.748697 24.232500
286 0 3 0.053000 31.983582 28.024586 23.755043
287 0 3 0.053000 33.242683 28.001959 23.310532
288 0 4 -1.000000 35.325188 29.065609 24.697273
289 0 1 -0.628400 39.407509 27.725092 23.601763
290 0 2 0.248100 40.485912 28.466148 24.365065
291 0 3 0.053000 40.848228 28.523447 24.592922
292 0 3 0.053000 40.148392 28.771914 24.808844
293 0 3 0.053000 41.478802 28.804420 24.412809
294 0 2 0.248100 39.235867 27.321861 23.480925
295 0 3 0.053000 38.802597 27.412767 23.866264
296 0 3 0.053000 40.184212 27.463017 23.505350
297 0 3 0.053000 38.565563 26.707342 22.951807
298 0 2 0.248100 38.321400 26.980579 22.840212
299 0 3 0.053000 38.010727 26.927158 22.600643
300 0 3 0.053000 37.325188 26.667454 22.816570
301 0 3 0.053000 38.614456 26.651218 22.389601
302 0 2 0.248100 39.582718 28.132994 23.728672
303 0 3 0.053000 40.343445 28.748697 24.232500
304 0 3 0.053000 38.651840 28.024586 23.755043
305 0 3 0.053000 39.910946 28.001959 23.310532
306 0 4 -1.000000 41.993446 29.065609 24.697273
307 0 1 -0.628400 46.075768 27.725092 23.601763
308 0 2 0.248100 47.154175 28.466148 24.365065
309 0 3 0.053000 47.516491 28.523447 24.592922
310 0 3 0.053000 46.816650 28.771914 24.808844
311 0 3 0.053000 48.147064 28.804420 24.412809
312 0 2 0.248100 45.904125 27.321861 23.480925
313 0 3 0.053000 45.470860 27.412767 23.866264
314 0 3 0.053000 46.852470 27.463017 23.505350
315 0 3 0.053000 45.233826 26.707342 22.951807
316 0 2 0.248100 44.989658 26.980579 22.840212
317 0 3 0.053000 44.678989 26.927158 22.600643
318 0 3 0.053000 43.993446 26.667454 22.816570
319 0 3 0.053000 45.282719 26.651218 22.389601
320 0 2 0.248100 46.250980 28.132994 23.728672
321 0 3 0.053000 47.011703 28.748697 24.232500
322 0 3 0.053000 45.320103 28.024586 23.755043
323 0 3 0.053000 46.579208 28.001959 23.310532
324 0 4 -1.000000 48.661709 29.065609 24.697273
325 0 1 -0.628400 12.734465 32.139484 23.601763
326 0 2 0.248100 13.812868 32.880539 24.365065
327 0 3 0.053000 14.175186 32.937840 24.592922
328 0 3 0.053000 13.475346 33.186306 24.808844
329 0 3 0.053000 14.805758 33.218811 24.412809
330 0 2 0.248100 12.562822 31.736252 23.480925
331 0 3 0.053000 12.129555 31.827158 23.866264
332 0 3 0.053000 13.511168 31.877407 23.505350
333 0 3 0.053000 11.892519 31.121735 22.951807
334 0 2 0.248100 11.648355 31.394970 22.840212
335 0 3 0.053000 11.337684 31.341551 22.600643
336 0 3 0.053000 10.652142 31.081844 22.816570
337 0 3 0.053000 11.941413 31.065609 22.389601
338 0 2 0.248100 12.909675 32.547386 23.728672
339 0 3 0.053000 13.670399 33.163090 24.232500
340 0 3 0.053000 11.978798 32.438976 23.755043
341 0 3 0.053000 13.237902 32.416351 23.310532
342 0 4 -1.000000 15.320402 33.480003 24.697273
343 0 1 -0.628400 19.402725 32.139484 23.601763
344 0 2 0.248100 20.481129 32.880539 24.365065
345 0 3 0.053000 20.843447 32.937840 24.592922
346 0 3 0.053000 20.143608 33.186306 24.808844
347 0 3 0.053000 21.474020 33.218811 24.412809
348 0 2 0.248100 19.231083 31.736252 23.480925
349 0 3 0.053000 18.797817 31.827158 23.866264
350 0 3 0.053000 20.179428 31.877407 23.505350
351 0 3 0.053000 18.560780 31.121735 22.951807
352 0 2 0.248100 18.316616 31.394970 22.840212
353 0 3 0.053000 18.005945 31.341551 22.600643
354 0 3 0.053000 17.320402 31.081844 22.816570
355 0 3 0.053000 18.609674 31.065609 22.389601
356 0 2 0.248100 19.577936 32.547386 23.728672
357 0 3 0.053000 20.338659 33.163090 24.232500
358 0 3 0.053000 18.647060 32.438976 23.755043
359 0 3 0.053000 19.906162 32.416351 23.310532
360 0 4 -1.000000 21.988663 33.480003 24.697273
361 0 1 -0.628400 26.070986 32.139484 23.601763
362 0 2 0.248100 27.149391 32.880539 24.365065
363 0 3 0.053000 27.511707 32.937840 24.592922
364 0 3 0.053000 26.811869 33.186306 24.808844
365 0 3 0.053000 28.142281 33.218811 24.412809
366 0 2 0.248100 25.899345 31.736252 23.480925
367 0 3 0.053000 25.466078 31.827158 23.866264
368 0 3 0.053000 26.847689 31.877407 23.505350
369 0 3 0.053000 25.229042 31.121735 22.951807
370 0 2 0.248100 24.984877 31.394970 22.840212
371 0 3 0.053000 24.674206 31.341551 22.600643
372 0 3 0.053000 23.988663 31.081844 22.816570
373 0 3 0.053000 25.277935 31.065609 22.389601
374 0 2 0.248100 26.246197 32.547386 23.728672
375 0 3 0.053000 27.006920 33.163090 24.232500
376 0 3 0.053000 25.315321 32.438976 23.755043
377 0 3 0.053000 26.574425 32.416351 23.310532
378 0 4 -1.000000 28.656925 33.480003 24.697273
379 0 1 -0.628400 32.739250 32.139484 23.601763
380 0 2 0.248100 33.817650 32.880539 24.365065
381 0 3 0.053000 34.179970 32.937840 24.592922
382 0 3 0.053000 33.480129 33.186306 24.808844
383 0 3 0.053000 34.810543 33.218811 24.412809
384 0 2 0.248100 32.567604 31.736252 23.480925
385 0 3 0.053000 32.134338 31.827158 23.866264
386 0 3 0.053000 33.515953 31.877407 23.505350
387 0 3 0.053000 31.897303 31.121735 22.951807
388 0 2 0.248100 31.653139 31.394970 22.840212
389 0 3 0.053000 31.342466 31.341551 22.600643
390 0 3 0.053000 30.656925 31.081844 22.816570
391 0 3 0.053000 31.946198 31.065609 22.389601
392 0 2 0.248100 32.914459 32.547386 23.728672
393 0 3 0.053000 33.675182 33.163090 24.232500
394 0 3 0.053000 31.983582 32.438976 23.755043
395 0 3 0.053000 33.242683 32.416351 23.310532
396 0 4 -1.000000 35.325188 33.480003 24.697273
397 0 1 -0.628400 39.407509 32.139484 23.601763
398 0 2 0.248100 40.485912 32.880539 24.365065
399 0 3 0.053000 40.848228 32.937840 24.592922
400 0 3 0.053000 40.148392 33.186306 24.808844
401 0 3 0.053000 41.478802 33.218811 24.412809
402 0 2 0.248100 39.235867 31.736252 23.480925
403 0 3 0.053000 38.802597 31.827158 23.866264
404 0 3 0.053000 40.184212 31.877407 23.505350
405 0 3 0.053000 38.565563 31.121735 22.951807
406 0 2 0.248100 38.321400 31.394970 22.840212
407 0 3 0.053000 38.010727 31.341551 22.600643
408 0 3 0.053000 37.325188 31.081844 22.816570
409 0 3 0.053000 38.614456 31.065609 22.389601
410 0 2 0.248100 39.582718 32.547386 23.728672
411 0 3 0.053000 40.343445 33.163090 24.232500
412 0 3 0.053000 38.651840 32.438976 23.755043
413 0 3 0.053000 39.910946 32.416351 23.310532
414 0 4 -1.000000 41.993446 33.480003 24.697273
415 0 1 -0.628400 46.075768 32.139484 23.601763
416 0 2 0.248100 47.154175 32.880539 24.365065
417 0 3 0.053000 47.516491 32.937840 24.592922
418 0 3 0.053000 46.816650 33.186306 24.808844
419 0 3 0.053000 48.147064 33.218811 24.412809
420 0 2 0.248100 45.904125 31.736252 23.480925
421 0 3 0.053000 45.470860 31.827158 23.866264
422 0 3 0.053000 46.852470 31.877407 23.505350
423 0 3 0.053000 45.233826 31.121735 22.951807
424 0 2 0.248100 44.989658 31.394970 22.840212
425 0 3 0.053000 44.678989 31.341551 22.600643
426 0 3 0.053000 43.993446 31.081844 22.816570
427 0 3 0.053000 45.282719 31.065609 22.389601
428 0 2 0.248100 46.250980 32.547386 23.728672
429 0 3 0.053000 47.011703 33.163090 24.232500
430 0 3 0.053000 45.320103 32.438976 23.755043
431 0 3 0.053000 46.579208 32.416351 23.310532
432 0 4 -1.000000 48.661709 33.480003 24.697273
433 0 1 -0.628400 12.734465 36.553879 23.601763
434 0 2 0.248100 13.812868 37.294930 24.365065
435 0 3 0.053000 14.175186 37.352234 24.592922
436 0 3 0.053000 13.475346 37.600700 24.808844
437 0 3 0.053000 14.805758 37.633202 24.412809
438 0 2 0.248100 12.562822 36.150642 23.480925
439 0 3 0.053000 12.129555 36.241550 23.866264
440 0 3 0.053000 13.511168 36.291801 23.505350
441 0 3 0.053000 11.892519 35.536125 22.951807
442 0 2 0.248100 11.648355 35.809364 22.840212
443 0 3 0.053000 11.337684 35.755943 22.600643
444 0 3 0.053000 10.652142 35.496239 22.816570
445 0 3 0.053000 11.941413 35.480003 22.389601
446 0 2 0.248100 12.909675 36.961777 23.728672
447 0 3 0.053000 13.670399 37.577480 24.232500
448 0 3 0.053000 11.978798 36.853371 23.755043
449 0 3 0.053000 13.237902 36.830742 23.310532
450 0 4 -1.000000 15.320402 37.894394 24.697273
451 0 1 -0.628400 19.402725 36.553879 23.601763
452 0 2 0.248100 20.481129 37.294930 24.365065
453 0 3 0.053000 20.843447 37.352234 24.592922
454 0 3 0.053000 20.143608 37.600700 24.808844
455 0 3 0.053000 21.474020 37.633202 24.412809
456 0 2 0.248100 19.231083 36.150642 23.480925
457 0 3 0.053000 18.797817 36.241550 23.866264
458 0 3 0.053000 20.179428 36.291801 23.505350
459 0 3 0.053000 18.560780 35.536125 22.951807
460 0 2 0.248100 18.316616 35.809364 22.840212
461 0 3 0.053000 18.005945 35.755943 22.600643
462 0 3 0.053000 17.320402 35.496239 22.816570
463 0 3 0.053000 18.609674 35.480003 22.389601
464 0 2 0.248100 19.577936 36.961777 23.728672
465 0 3 0.053000 20.338659 37.577480 24.232500
466 0 3 0.053000 18.647060 36.853371 23.755043
467 0 3 0.053000 19.906162 36.830742 23.310532
468 0 4 -1.000000 21.988663 37.894394 24.697273
469 0 1 -0.628400 26.070986 36.553879 23.601763
470 0 2 0.248100 27.149391 37.294930 24.365065
471 0 3 0.053000 27.511707 37.352234 24.592922
472 0 3 0.053000 26.811869 37.600700 24.808844
473 0 3 0.053000 28.142281 37.633202 24.412809
474 0 2 0.248100 25.899345 36.150642 23.480925
475 0 3 0.053000 25.466078 36.241550 23.866264
476 0 3 0.053000 26.847689 36.291801 23.505350
477 0 3 0.053000 25.229042 35.536125 22.951807
478 0 2 0.248100 24.984877 35.809364 22.840212
479 0 3 0.053000 24.674206 35.755943 22.600643
480 0 3 0.053000 23.988663 35.496239 22.816570
481 0 3 0.053000 25.277935 35.480003 22.389601
482 0 2 0.248100 26.246197 36.961777 23.728672
483 0 3 0.053000 27.006920 37.577480 24.232500
484 0 3 0.053000 25.315321 36.853371 23.755043
485 0 3 0.053000 26.574425 36.830742 23.310532
486 0 4 -1.000000 28.656925 37.894394 24.697273
487 0 1 -0.628400 32.739250 36.553879 23.601763
488 0 2 0.248100 33.817650 37.294930 24.365065
489 0 3 0.053000 34.179970 37.352234 24.592922
490 0 3 0.053000 33.480129 37.600700 24.808844
491 0 3 0.053000 34.810543 37.633202 24.412809
492 0 2 0.248100 32.567604 36.150642 23.480925
493 0 3 0.053000 32.134338 36.241550 23.866264
494 0 3 0.053000 33.515953 36.291801 23.505350
495 0 3 0.053000 31.897303 35.536125 22.951807
496 0 2 0.248100 31.653139 35.809364 22.840212
497 0 3 0.053000 31.342466 35.755943 22.600643
498 0 3 0.053000 30.656925 35.496239 22.816570
499 0 3 0.053000 31.946198 35.480003 22.389601
500 0 2 0.248100 32.914459 36.961777 23.728672
501 0 3 0.053000 33.675182 37.577480 24.232500
502 0 3 0.053000 31.983582 36.853371 23.755043
503 0 3 0.053000 33.242683 36.830742 23.310532
504 0 4 -1.000000 35.325188 37.894394 24.697273
505 0 1 -0.628400 39.407509 36.553879 23.601763
506 0 2 0.248100 40.485912 37.294930 24.365065
507 0 3 0.053000 40.848228 37.352234 24.592922
508 0 3 0.053000 40.148392 37.600700 24.808844
509 0 3 0.053000 41.478802 37.633202 24.412809
510 0 2 0.248100 39.235867 36.150642 23.480925
511 0 3 0.053000 38.802597 36.241550 23.866264
512 0 3 0.053000 40.184212 36.291801 23.505350
513 0 3 0.053000 38.565563 35.536125 22.951807
514 0 2 0.248100 38.321400 35.809364 22.840212
515 0 3 0.053000 38.010727 35.755943 22.600643
516 0 3 0.053000 37.325188 35.496239 22.816570
517 0 3 0.053000 38.614456 35.480003 22.389601
518 0 2 0.248100 39.582718 36.961777 23.728672
519 0 3 0.053000 40.343445 37.577480 24.232500
520 0 3 0.053000 38.651840 36.853371 23.755043
521 0 3 0.053000 39.910946 36.830742 23.310532
522 0 4 -1.000000 41.993446 37.894394 24.697273
523 0 1 -0.628400 46.075768 36.553879 23.601763
524 0 2 0.248100 47.154175 37.294930 24.365065
525 0 3 0.053000 47.516491 37.352234 24.592922
526 0 3 0.053000 46.816650 37.600700 24.808844
527 0 3 0.053000 48.147064 37.633202 24.412809
528 0 2 0.248100 45.904125 36.150642 23.480925
529 0 3 0.053000 45.470860 36.241550 23.866264
530 0 3 0.053000 46.852470 36.291801 23.505350
531 0 3 0.053000 45.233826 35.536125 22.951807
532 0 2 0.248100 44.989658 35.809364 22.840212
533 0 3 0.053000 44.678989 35.755943 22.600643
534 0 3 0.053000 43.993446 35.496239 22.816570
535 0 3 0.053000 45.282719 35.480003 22.389601
536 0 2 0.248100 46.250980 36.961777 23.728672
537 0 3 0.053000 47.011703 37.577480 24.232500
538 0 3 0.053000 45.320103 36.853371 23.755043
539 0 3 0.053000 46.579208 36.830742 23.310532
540 0 4 -1.000000 48.661709 37.894394 24.697273
541 0 1 -0.628400 12.734465 40.968269 23.601763
542 0 2 0.248100 13.812868 41.709324 24.365065
543 0 3 0.053000 14.175186 41.766624 24.592922
544 0 3 0.053000 13.475346 42.015091 24.808844
545 0 3 0.053000 14.805758 42.047596 24.412809
546 0 2 0.248100 12.562822 40.565037 23.480925
547 0 3 0.053000 12.129555 40.655945 23.866264
548 0 3 0.053000 13.511168 40.706192 23.505350
549 0 3 0.053000 11.892519 39.950520 22.951807
550 0 2 0.248100 11.648355 40.223755 22.840212
551 0 3 0.053000 11.337684 40.170334 22.600643
552 0 3 0.053000 10.652142 39.910629 22.816570
553 0 3 0.053000 11.941413 39.894394 22.389601
554 0 2 0.248100 12.909675 41.376171 23.728672
555 0 3 0.053000 13.670399 41.991875 24.232500
556 0 3 0.053000 11.978798 41.267761 23.755043
557 0 3 0.053000 13.237902 41.245136 23.310532
558 0 4 -1.000000 15.320402 42.308784 24.697273
559 0 1 -0.628400 19.402725 40.968269 23.601763
560 0 2 0.248100 20.481129 41.709324 24.365065
561 0 3 0.053000 20.843447 41.766624 24.592922
562 0 3 0.053000 20.143608 42.015091 24.808844
563 0 3 0.053000 21.474020 42.047596 24.412809
564 0 2 0.248100 19.231083 40.565037 23.480925
565 0 3 0.053000 18.797817 40.655945 23.866264
566 0 3 0.053000 20.179428 40.706192 23.505350
567 0 3 0.053000 18.560780 39.950520 22.951807
568 0 2 0.248100 18.316616 40.223755 22.840212
569 0 3 0.053000 18.005945 40.170334 22.600643
570 0 3 0.053000 17.320402 39.910629 22.816570
571 0 3 0.053000 18.609674 39.894394 22.389601
572 0 2 0.248100 19.577936 41.376171 23.728672
573 0 3 0.053000 20.338659 41.991875 24.232500
574 0 3 0.053000 18.647060 41.267761 23.755043
575 0 3 0.053000 19.906162 41.245136 23.310532
576 0 4 -1.000000 21.988663 42.308784 24.697273
577 0 1 -0.628400 26.070986 40.968269 23.601763
578 0 2 0.248100 27.149391 41.709324 24.365065
579 0 3 0.053000 27.511707 41.766624 24.592922
580 0 3 0.053000 26.811869 42.015091 24.808844
581 0 3 0.053000 28.142281 42.047596 24.412809
582 0 2 0.248100 25.899345 40.565037 23.480925
583 0 3 0.053000 25.466078 40.655945 23.866264
584 0 3 0.053000 26.847689 40.706192 23.505350
585 0 3 0.053000 25.229042 39.950520 22.951807
586 0 2 0.248100 24.984877 40.223755 22.840212
587 0 3 0.053000 24.674206 40.170334 22.600643
588 0 3 0.053000 23.988663 39.910629 22.816570
589 0 3 0.053000 25.277935 39.894394 22.389601
590 0 2 0.248100 26.246197 41.376171 23.728672
591 0 3 0.053000 27.006920 41.991875 24.232500
592 0 3 0.053000 25.315321 41.267761 23.755043
593 0 3 0.053000 26.574425 41.245136 23.310532
594 0 4 -1.000000 28.656925 42.308784 24.697273
595 0 1 -0.628400 32.739250 40.968269 23.601763
596 0 2 0.248100 33.817650 41.709324 24.365065
597 0 3 0.053000 34.179970 41.766624 24.592922
598 0 3 0.053000 33.480129 42.015091 24.808844
599 0 3 0.053000 34.810543 42.047596 24.412809
600 0 2 0.248100 32.567604 40.565037 23.480925
601 0 3 0.053000 32.134338 40.655945 23.866264
602 0 3 0.053000 33.515953 40.706192 23.505350
603 0 3 0.053000 31.897303 39.950520 22.951807
604 0 2 0.248100 31.653139 40.223755 22.840212
605 0 3 0.053000 31.342466 40.170334 22.600643
606 0 3 0.053000 30.656925 39.910629 22.816570
607 0 3 0.053000 31.946198 39.894394 22.389601
608 0 2 0.248100 32.914459 41.376171 23.728672
609 0 3 0.053000 33.675182 41.991875 24.232500
610 0 3 0.053000 31.983582 41.267761 23.755043
611 0 3 0.053000 33.242683 41.245136 23.310532
612 0 4 -1.000000 35.325188 42.308784 24.697273
613 0 1 -0.628400 39.407509 40.968269 23.601763
614 0 2 0.248100 40.485912 41.709324 24.365065
615 0 3 0.053000 40.848228 41.766624 24.592922
616 0 3 0.053000 40.148392 42.015091 24.808844
617 0 3 0.053000 41.478802 42.047596 24.412809
618 0 2 0.248100 39.235867 40.565037 23.480925
619 0 3 0.053000 38.802597 40.655945 23.866264
620 0 3 0.053000 40.184212 40.706192 23.505350
621 0 3 0.053000 38.565563 39.950520 22.951807
622 0 2 0.248100 38.321400 40.223755 22.840212
623 0 3 0.053000 38.010727 40.170334 22.600643
624 0 3 0.053000 37.325188 39.910629 22.816570
625 0 3 0.053000 38.614456 39.894394 22.389601
626 0 2 0.248100 39.582718 41.376171 23.728672
627 0 3 0.053000 40.343445 41.991875 24.232500
628 0 3 0.053000 38.651840 41.267761 23.755043
629 0 3 0.053000 39.910946 41.245136 23.310532
630 0 4 -1.000000 41.993446 42.308784 24.697273
631 0 1 -0.628400 46.075768 40.968269 23.601763