LAMMPS 2005 data file for finalStructure

    450 atoms
    400 bonds
    750 angles
    900 dihedrals
      0 impropers

   4 atom types
   2 bond types
   3 angle types
   1 dihedral types

     0.000000000    18.004783630 xlo xhi
    -0.016235234    11.226940155 ylo yhi
    -0.426969767    10.830757141 zlo zhi

Masses

   1  14.006700
   2  12.011150
   3   1.007970
   4  79.908997

Pair Coeffs

   1   0.1669999743   3.5012320066 
   2   0.0389999952   3.8754094636 
   3   0.0380000011   2.4499714540 
   4   0.0999449193   3.7954027279 

Bond Coeffs

  1   377.5752     1.4600 
  2   340.6175     1.1050 

Angle Coeffs

  1    37.0000   120.0000 
  2    51.5000   109.5000 
  3    39.5000   106.4000 

Dihedral Coeffs

  1     0.0000     1.0000     0.0000 

Atoms

      1      0   1 -0.628400     2.082322598     1.057639360     0.785192907
      2      0   2  0.248100     3.160727024     1.798694491     1.548495054
      3      0   3  0.053000     3.523044348     1.855994582     1.776351929
      4      0   3  0.053000     2.823204279     2.104460955     1.992272615
      5      0   3  0.053000     4.153616905     2.136967182     1.596238732
      6      0   2  0.248100     1.910680532     0.654407620     0.664353430
      7      0   3  0.053000     1.477413654     0.745314121     1.049695015
      8      0   3  0.053000     2.859025717     0.795562506     0.688779354
      9      0   3  0.053000     1.240377903     0.039889812     0.135236681
     10      0   2  0.248100     0.996213436     0.313125730     0.023641348
     11      0   3  0.053000     0.685541928     0.259706587    -0.215927511
     12      0   3  0.053000     0.000000000     0.000000000     0.000000000
     13      0   3  0.053000     1.289271474    -0.016235234    -0.426969767
     14      0   2  0.248100     2.257533073     1.465541244     0.912101209
     15      0   3  0.053000     3.018257141     2.081244469     1.415929317
     16      0   3  0.053000     1.326656818     1.357133150     0.938472271
     17      0   3  0.053000     2.585760593     1.334506273     0.493960857
     18      0   4 -1.000000     4.668261051     2.398156643     1.880703211
     19      0   1 -0.628400     8.750583649     1.057639360     0.785192907
     20      0   2  0.248100     9.828988075     1.798694491     1.548495054
     21      0   3  0.053000    10.191305161     1.855994582     1.776351929
     22      0   3  0.053000     9.491465569     2.104460955     1.992272615
     23      0   3  0.053000    10.821878433     2.136967182     1.596238732
     24      0   2  0.248100     8.578941345     0.654407620     0.664353430
     25      0   3  0.053000     8.145674706     0.745314121     1.049695015
     26      0   3  0.053000     9.527286530     0.795562506     0.688779354
     27      0   3  0.053000     7.908638954     0.039889812     0.135236681
     28      0   2  0.248100     7.664474487     0.313125730     0.023641348
     29      0   3  0.053000     7.353803158     0.259706587    -0.215927511
     30      0   3  0.053000     6.668261051     0.000000000     0.000000000
     31      0   3  0.053000     7.957532406    -0.016235234    -0.426969767
     32      0   2  0.248100     8.925794601     1.465541244     0.912101209
     33      0   3  0.053000     9.686517715     2.081244469     1.415929317
     34      0   3  0.053000     7.994917870     1.357133150     0.938472271
     35      0   3  0.053000     9.254021645     1.334506273     0.493960857
     36      0   4 -1.000000    11.336522102     2.398156643     1.880703211
     37      0   1 -0.628400    15.418844223     1.057639360     0.785192907
     38      0   2  0.248100    16.497249603     1.798694491     1.548495054
     39      0   3  0.053000    16.859565735     1.855994582     1.776351929
     40      0   3  0.053000    16.159727097     2.104460955     1.992272615
     41      0   3  0.053000    17.490139008     2.136967182     1.596238732
     42      0   2  0.248100    15.247202873     0.654407620     0.664353430
     43      0   3  0.053000    14.813936234     0.745314121     1.049695015
     44      0   3  0.053000    16.195547104     0.795562506     0.688779354
     45      0   3  0.053000    14.576900482     0.039889812     0.135236681
     46      0   2  0.248100    14.332735062     0.313125730     0.023641348
     47      0   3  0.053000    14.022064209     0.259706587    -0.215927511
     48      0   3  0.053000    13.336522102     0.000000000     0.000000000
     49      0   3  0.053000    14.625793457    -0.016235234    -0.426969767
     50      0   2  0.248100    15.594055176     1.465541244     0.912101209
     51      0   3  0.053000    16.354778290     2.081244469     1.415929317
     52      0   3  0.053000    14.663179398     1.357133150     0.938472271
     53      0   3  0.053000    15.922283173     1.334506273     0.493960857
     54      0   4 -1.000000    18.004783630     2.398156643     1.880703211
     55      0   1 -0.628400     2.082322598     5.472031593     0.785192907
     56      0   2  0.248100     3.160727024     6.213086605     1.548495054
     57      0   3  0.053000     3.523044348     6.270386696     1.776351929
     58      0   3  0.053000     2.823204279     6.518853188     1.992272615
     59      0   3  0.053000     4.153616905     6.551359177     1.596238732
     60      0   2  0.248100     1.910680532     5.068799496     0.664353430
     61      0   3  0.053000     1.477413654     5.159706116     1.049695015
     62      0   3  0.053000     2.859025717     5.209954262     0.688779354
     63      0   3  0.053000     1.240377903     4.454281807     0.135236681
     64      0   2  0.248100     0.996213436     4.727517605     0.023641348
     65      0   3  0.053000     0.685541928     4.674098492    -0.215927511
     66      0   3  0.053000     0.000000000     4.414391994     0.000000000
     67      0   3  0.053000     1.289271474     4.398156643    -0.426969767
     68      0   2  0.248100     2.257533073     5.879933357     0.912101209
     69      0   3  0.053000     3.018257141     6.495636463     1.415929317
     70      0   3  0.053000     1.326656818     5.771525383     0.938472271
     71      0   3  0.053000     2.585760593     5.748898506     0.493960857
     72      0   4 -1.000000     4.668261051     6.812548637     1.880703211
     73      0   1 -0.628400     8.750583649     5.472031593     0.785192907
     74      0   2  0.248100     9.828988075     6.213086605     1.548495054
     75      0   3  0.053000    10.191305161     6.270386696     1.776351929
     76      0   3  0.053000     9.491465569     6.518853188     1.992272615
     77      0   3  0.053000    10.821878433     6.551359177     1.596238732
     78      0   2  0.248100     8.578941345     5.068799496     0.664353430
     79      0   3  0.053000     8.145674706     5.159706116     1.049695015
     80      0   3  0.053000     9.527286530     5.209954262     0.688779354
     81      0   3  0.053000     7.908638954     4.454281807     0.135236681
     82      0   2  0.248100     7.664474487     4.727517605     0.023641348
     83      0   3  0.053000     7.353803158     4.674098492    -0.215927511
     84      0   3  0.053000     6.668261051     4.414391994     0.000000000
     85      0   3  0.053000     7.957532406     4.398156643    -0.426969767
     86      0   2  0.248100     8.925794601     5.879933357     0.912101209
     87      0   3  0.053000     9.686517715     6.495636463     1.415929317
     88      0   3  0.053000     7.994917870     5.771525383     0.938472271
     89      0   3  0.053000     9.254021645     5.748898506     0.493960857
     90      0   4 -1.000000    11.336522102     6.812548637     1.880703211
     91      0   1 -0.628400    15.418844223     5.472031593     0.785192907
     92      0   2  0.248100    16.497249603     6.213086605     1.548495054
     93      0   3  0.053000    16.859565735     6.270386696     1.776351929
     94      0   3  0.053000    16.159727097     6.518853188     1.992272615
     95      0   3  0.053000    17.490139008     6.551359177     1.596238732
     96      0   2  0.248100    15.247202873     5.068799496     0.664353430
     97      0   3  0.053000    14.813936234     5.159706116     1.049695015
     98      0   3  0.053000    16.195547104     5.209954262     0.688779354
     99      0   3  0.053000    14.576900482     4.454281807     0.135236681
    100      0   2  0.248100    14.332735062     4.727517605     0.023641348
    101      0   3  0.053000    14.022064209     4.674098492    -0.215927511
    102      0   3  0.053000    13.336522102     4.414391994     0.000000000
    103      0   3  0.053000    14.625793457     4.398156643    -0.426969767
    104      0   2  0.248100    15.594055176     5.879933357     0.912101209
    105      0   3  0.053000    16.354778290     6.495636463     1.415929317
    106      0   3  0.053000    14.663179398     5.771525383     0.938472271
    107      0   3  0.053000    15.922283173     5.748898506     0.493960857
    108      0   4 -1.000000    18.004783630     6.812548637     1.880703211
    109      0   1 -0.628400     2.082322598     9.886423111     0.785192907
    110      0   2  0.248100     3.160727024    10.627478600     1.548495054
    111      0   3  0.053000     3.523044348    10.684778214     1.776351929
    112      0   3  0.053000     2.823204279    10.933244705     1.992272615
    113      0   3  0.053000     4.153616905    10.965751648     1.596238732
    114      0   2  0.248100     1.910680532     9.483191490     0.664353430
    115      0   3  0.053000     1.477413654     9.574098587     1.049695015
    116      0   3  0.053000     2.859025717     9.624346733     0.688779354
    117      0   3  0.053000     1.240377903     8.868673325     0.135236681
    118      0   2  0.248100     0.996213436     9.141909599     0.023641348
    119      0   3  0.053000     0.685541928     9.088490486    -0.215927511
    120      0   3  0.053000     0.000000000     8.828783989     0.000000000
    121      0   3  0.053000     1.289271474     8.812548637    -0.426969767
    122      0   2  0.248100     2.257533073    10.294324875     0.912101209
    123      0   3  0.053000     3.018257141    10.910028458     1.415929317
    124      0   3  0.053000     1.326656818    10.185916901     0.938472271
    125      0   3  0.053000     2.585760593    10.163290024     0.493960857
    126      0   4 -1.000000     4.668261051    11.226940155     1.880703211
    127      0   1 -0.628400     8.750583649     9.886423111     0.785192907
    128      0   2  0.248100     9.828988075    10.627478600     1.548495054
    129      0   3  0.053000    10.191305161    10.684778214     1.776351929
    130      0   3  0.053000     9.491465569    10.933244705     1.992272615
    131      0   3  0.053000    10.821878433    10.965751648     1.596238732
    132      0   2  0.248100     8.578941345     9.483191490     0.664353430
    133      0   3  0.053000     8.145674706     9.574098587     1.049695015
    134      0   3  0.053000     9.527286530     9.624346733     0.688779354
    135      0   3  0.053000     7.908638954     8.868673325     0.135236681
    136      0   2  0.248100     7.664474487     9.141909599     0.023641348
    137      0   3  0.053000     7.353803158     9.088490486    -0.215927511
    138      0   3  0.053000     6.668261051     8.828783989     0.000000000
    139      0   3  0.053000     7.957532406     8.812548637    -0.426969767
    140      0   2  0.248100     8.925794601    10.294324875     0.912101209
    141      0   3  0.053000     9.686517715    10.910028458     1.415929317
    142      0   3  0.053000     7.994917870    10.185916901     0.938472271
    143      0   3  0.053000     9.254021645    10.163290024     0.493960857
    144      0   4 -1.000000    11.336522102    11.226940155     1.880703211
    145      0   1 -0.628400    15.418844223     9.886423111     0.785192907
    146      0   2  0.248100    16.497249603    10.627478600     1.548495054
    147      0   3  0.053000    16.859565735    10.684778214     1.776351929
    148      0   3  0.053000    16.159727097    10.933244705     1.992272615
    149      0   3  0.053000    17.490139008    10.965751648     1.596238732
    150      0   2  0.248100    15.247202873     9.483191490     0.664353430
    151      0   3  0.053000    14.813936234     9.574098587     1.049695015
    152      0   3  0.053000    16.195547104     9.624346733     0.688779354
    153      0   3  0.053000    14.576900482     8.868673325     0.135236681
    154      0   2  0.248100    14.332735062     9.141909599     0.023641348
    155      0   3  0.053000    14.022064209     9.088490486    -0.215927511
    156      0   3  0.053000    13.336522102     8.828783989     0.000000000
    157      0   3  0.053000    14.625793457     8.812548637    -0.426969767
    158      0   2  0.248100    15.594055176    10.294324875     0.912101209
    159      0   3  0.053000    16.354778290    10.910028458     1.415929317
    160      0   3  0.053000    14.663179398    10.185916901     0.938472271
    161      0   3  0.053000    15.922283173    10.163290024     0.493960857
    162      0   4 -1.000000    18.004783630    11.226940155     1.880703211
    163      0   1 -0.628400     2.082322598     1.057639360     5.204435349
    164      0   2  0.248100     3.160727024     1.798694491     5.967737198
    165      0   3  0.053000     3.523044348     1.855994582     6.195594311
    166      0   3  0.053000     2.823204279     2.104460955     6.411515236
    167      0   3  0.053000     4.153616905     2.136967182     6.015480995
    168      0   2  0.248100     1.910680532     0.654407620     5.083595753
    169      0   3  0.053000     1.477413654     0.745314121     5.468937397
    170      0   3  0.053000     2.859025717     0.795562506     5.108021736
    171      0   3  0.053000     1.240377903     0.039889812     4.554479122
    172      0   2  0.248100     0.996213436     0.313125730     4.442883492
    173      0   3  0.053000     0.685541928     0.259706587     4.203314781
    174      0   3  0.053000     0.000000000     0.000000000     4.419242382
    175      0   3  0.053000     1.289271474    -0.016235234     3.992272615
    176      0   2  0.248100     2.257533073     1.465541244     5.331343651
    177      0   3  0.053000     3.018257141     2.081244469     5.835171700
    178      0   3  0.053000     1.326656818     1.357133150     5.357714653
    179      0   3  0.053000     2.585760593     1.334506273     4.913203239
    180      0   4 -1.000000     4.668261051     2.398156643     6.299945831
    181      0   1 -0.628400     8.750583649     1.057639360     5.204435349
    182      0   2  0.248100     9.828988075     1.798694491     5.967737198
    183      0   3  0.053000    10.191305161     1.855994582     6.195594311
    184      0   3  0.053000     9.491465569     2.104460955     6.411515236
    185      0   3  0.053000    10.821878433     2.136967182     6.015480995
    186      0   2  0.248100     8.578941345     0.654407620     5.083595753
    187      0   3  0.053000     8.145674706     0.745314121     5.468937397
    188      0   3  0.053000     9.527286530     0.795562506     5.108021736
    189      0   3  0.053000     7.908638954     0.039889812     4.554479122
    190      0   2  0.248100     7.664474487     0.313125730     4.442883492
    191      0   3  0.053000     7.353803158     0.259706587     4.203314781
    192      0   3  0.053000     6.668261051     0.000000000     4.419242382
    193      0   3  0.053000     7.957532406    -0.016235234     3.992272615
    194      0   2  0.248100     8.925794601     1.465541244     5.331343651
    195      0   3  0.053000     9.686517715     2.081244469     5.835171700
    196      0   3  0.053000     7.994917870     1.357133150     5.357714653
    197      0   3  0.053000     9.254021645     1.334506273     4.913203239
    198      0   4 -1.000000    11.336522102     2.398156643     6.299945831
    199      0   1 -0.628400    15.418844223     1.057639360     5.204435349
    200      0   2  0.248100    16.497249603     1.798694491     5.967737198
    201      0   3  0.053000    16.859565735     1.855994582     6.195594311
    202      0   3  0.053000    16.159727097     2.104460955     6.411515236
    203      0   3  0.053000    17.490139008     2.136967182     6.015480995
    204      0   2  0.248100    15.247202873     0.654407620     5.083595753
    205      0   3  0.053000    14.813936234     0.745314121     5.468937397
    206      0   3  0.053000    16.195547104     0.795562506     5.108021736
    207      0   3  0.053000    14.576900482     0.039889812     4.554479122
    208      0   2  0.248100    14.332735062     0.313125730     4.442883492
    209      0   3  0.053000    14.022064209     0.259706587     4.203314781
    210      0   3  0.053000    13.336522102     0.000000000     4.419242382
    211      0   3  0.053000    14.625793457    -0.016235234     3.992272615
    212      0   2  0.248100    15.594055176     1.465541244     5.331343651
    213      0   3  0.053000    16.354778290     2.081244469     5.835171700
    214      0   3  0.053000    14.663179398     1.357133150     5.357714653
    215      0   3  0.053000    15.922283173     1.334506273     4.913203239
    216      0   4 -1.000000    18.004783630     2.398156643     6.299945831
    217      0   1 -0.628400     2.082322598     5.472031593     5.204435349
    218      0   2  0.248100     3.160727024     6.213086605     5.967737198
    219      0   3  0.053000     3.523044348     6.270386696     6.195594311
    220      0   3  0.053000     2.823204279     6.518853188     6.411515236
    221      0   3  0.053000     4.153616905     6.551359177     6.015480995
    222      0   2  0.248100     1.910680532     5.068799496     5.083595753
    223      0   3  0.053000     1.477413654     5.159706116     5.468937397
    224      0   3  0.053000     2.859025717     5.209954262     5.108021736
    225      0   3  0.053000     1.240377903     4.454281807     4.554479122
    226      0   2  0.248100     0.996213436     4.727517605     4.442883492
    227      0   3  0.053000     0.685541928     4.674098492     4.203314781
    228      0   3  0.053000     0.000000000     4.414391994     4.419242382
    229      0   3  0.053000     1.289271474     4.398156643     3.992272615
    230      0   2  0.248100     2.257533073     5.879933357     5.331343651
    231      0   3  0.053000     3.018257141     6.495636463     5.835171700
    232      0   3  0.053000     1.326656818     5.771525383     5.357714653
    233      0   3  0.053000     2.585760593     5.748898506     4.913203239
    234      0   4 -1.000000     4.668261051     6.812548637     6.299945831
    235      0   1 -0.628400     8.750583649     5.472031593     5.204435349
    236      0   2  0.248100     9.828988075     6.213086605     5.967737198
    237      0   3  0.053000    10.191305161     6.270386696     6.195594311
    238      0   3  0.053000     9.491465569     6.518853188     6.411515236
    239      0   3  0.053000    10.821878433     6.551359177     6.015480995
    240      0   2  0.248100     8.578941345     5.068799496     5.083595753
    241      0   3  0.053000     8.145674706     5.159706116     5.468937397
    242      0   3  0.053000     9.527286530     5.209954262     5.108021736
    243      0   3  0.053000     7.908638954     4.454281807     4.554479122
    244      0   2  0.248100     7.664474487     4.727517605     4.442883492
    245      0   3  0.053000     7.353803158     4.674098492     4.203314781
    246      0   3  0.053000     6.668261051     4.414391994     4.419242382
    247      0   3  0.053000     7.957532406     4.398156643     3.992272615
    248      0   2  0.248100     8.925794601     5.879933357     5.331343651
    249      0   3  0.053000     9.686517715     6.495636463     5.835171700
    250      0   3  0.053000     7.994917870     5.771525383     5.357714653
    251      0   3  0.053000     9.254021645     5.748898506     4.913203239
    252      0   4 -1.000000    11.336522102     6.812548637     6.299945831
    253      0   1 -0.628400    15.418844223     5.472031593     5.204435349
    254      0   2  0.248100    16.497249603     6.213086605     5.967737198
    255      0   3  0.053000    16.859565735     6.270386696     6.195594311
    256      0   3  0.053000    16.159727097     6.518853188     6.411515236
    257      0   3  0.053000    17.490139008     6.551359177     6.015480995
    258      0   2  0.248100    15.247202873     5.068799496     5.083595753
    259      0   3  0.053000    14.813936234     5.159706116     5.468937397
    260      0   3  0.053000    16.195547104     5.209954262     5.108021736
    261      0   3  0.053000    14.576900482     4.454281807     4.554479122
    262      0   2  0.248100    14.332735062     4.727517605     4.442883492
    263      0   3  0.053000    14.022064209     4.674098492     4.203314781
    264      0   3  0.053000    13.336522102     4.414391994     4.419242382
    265      0   3  0.053000    14.625793457     4.398156643     3.992272615
    266      0   2  0.248100    15.594055176     5.879933357     5.331343651
    267      0   3  0.053000    16.354778290     6.495636463     5.835171700
    268      0   3  0.053000    14.663179398     5.771525383     5.357714653
    269      0   3  0.053000    15.922283173     5.748898506     4.913203239
    270      0   4 -1.000000    18.004783630     6.812548637     6.299945831
    271      0   1 -0.628400     2.082322598     9.886423111     5.204435349
    272      0   2  0.248100     3.160727024    10.627478600     5.967737198
    273      0   3  0.053000     3.523044348    10.684778214     6.195594311
    274      0   3  0.053000     2.823204279    10.933244705     6.411515236
    275      0   3  0.053000     4.153616905    10.965751648     6.015480995
    276      0   2  0.248100     1.910680532     9.483191490     5.083595753
    277      0   3  0.053000     1.477413654     9.574098587     5.468937397
    278      0   3  0.053000     2.859025717     9.624346733     5.108021736
    279      0   3  0.053000     1.240377903     8.868673325     4.554479122
    280      0   2  0.248100     0.996213436     9.141909599     4.442883492
    281      0   3  0.053000     0.685541928     9.088490486     4.203314781
    282      0   3  0.053000     0.000000000     8.828783989     4.419242382
    283      0   3  0.053000     1.289271474     8.812548637     3.992272615
    284      0   2  0.248100     2.257533073    10.294324875     5.331343651
    285      0   3  0.053000     3.018257141    10.910028458     5.835171700
    286      0   3  0.053000     1.326656818    10.185916901     5.357714653
    287      0   3  0.053000     2.585760593    10.163290024     4.913203239
    288      0   4 -1.000000     4.668261051    11.226940155     6.299945831
    289      0   1 -0.628400     8.750583649     9.886423111     5.204435349
    290      0   2  0.248100     9.828988075    10.627478600     5.967737198
    291      0   3  0.053000    10.191305161    10.684778214     6.195594311
    292      0   3  0.053000     9.491465569    10.933244705     6.411515236
    293      0   3  0.053000    10.821878433    10.965751648     6.015480995
    294      0   2  0.248100     8.578941345     9.483191490     5.083595753
    295      0   3  0.053000     8.145674706     9.574098587     5.468937397
    296      0   3  0.053000     9.527286530     9.624346733     5.108021736
    297      0   3  0.053000     7.908638954     8.868673325     4.554479122
    298      0   2  0.248100     7.664474487     9.141909599     4.442883492
    299      0   3  0.053000     7.353803158     9.088490486     4.203314781
    300      0   3  0.053000     6.668261051     8.828783989     4.419242382
    301      0   3  0.053000     7.957532406     8.812548637     3.992272615
    302      0   2  0.248100     8.925794601    10.294324875     5.331343651
    303      0   3  0.053000     9.686517715    10.910028458     5.835171700
    304      0   3  0.053000     7.994917870    10.185916901     5.357714653
    305      0   3  0.053000     9.254021645    10.163290024     4.913203239
    306      0   4 -1.000000    11.336522102    11.226940155     6.299945831
    307      0   1 -0.628400    15.418844223     9.886423111     5.204435349
    308      0   2  0.248100    16.497249603    10.627478600     5.967737198
    309      0   3  0.053000    16.859565735    10.684778214     6.195594311
    310      0   3  0.053000    16.159727097    10.933244705     6.411515236
    311      0   3  0.053000    17.490139008    10.965751648     6.015480995
    312      0   2  0.248100    15.247202873     9.483191490     5.083595753
    313      0   3  0.053000    14.813936234     9.574098587     5.468937397
    314      0   3  0.053000    16.195547104     9.624346733     5.108021736
    315      0   3  0.053000    14.576900482     8.868673325     4.554479122
    316      0   2  0.248100    14.332735062     9.141909599     4.442883492
    317      0   3  0.053000    14.022064209     9.088490486     4.203314781
    318      0   3  0.053000    13.336522102     8.828783989     4.419242382
    319      0   3  0.053000    14.625793457     8.812548637     3.992272615
    320      0   2  0.248100    15.594055176    10.294324875     5.331343651
    321      0   3  0.053000    16.354778290    10.910028458     5.835171700
    322      0   3  0.053000    14.663179398    10.185916901     5.357714653
    323      0   3  0.053000    15.922283173    10.163290024     4.913203239
    324      0   4 -1.000000    18.004783630    11.226940155     6.299945831
    325      0   1 -0.628400     2.082322598     1.057639360     9.623677254
    326      0   2  0.248100     3.160727024     1.798694491    10.386980057
    327      0   3  0.053000     3.523044348     1.855994582    10.614836693
    328      0   3  0.053000     2.823204279     2.104460955    10.830757141
    329      0   3  0.053000     4.153616905     2.136967182    10.434723854
    330      0   2  0.248100     1.910680532     0.654407620     9.502838135
    331      0   3  0.053000     1.477413654     0.745314121     9.888179779
    332      0   3  0.053000     2.859025717     0.795562506     9.527263641
    333      0   3  0.053000     1.240377903     0.039889812     8.973721504
    334      0   2  0.248100     0.996213436     0.313125730     8.862126350
    335      0   3  0.053000     0.685541928     0.259706587     8.622557640
    336      0   3  0.053000     0.000000000     0.000000000     8.838484764
    337      0   3  0.053000     1.289271474    -0.016235234     8.411515236
    338      0   2  0.248100     2.257533073     1.465541244     9.750585556
    339      0   3  0.053000     3.018257141     2.081244469    10.254413605
    340      0   3  0.053000     1.326656818     1.357133150     9.776956558
    341      0   3  0.053000     2.585760593     1.334506273     9.332445145
    342      0   4 -1.000000     4.668261051     2.398156643    10.719187737
    343      0   1 -0.628400     8.750583649     1.057639360     9.623677254
    344      0   2  0.248100     9.828988075     1.798694491    10.386980057
    345      0   3  0.053000    10.191305161     1.855994582    10.614836693
    346      0   3  0.053000     9.491465569     2.104460955    10.830757141
    347      0   3  0.053000    10.821878433     2.136967182    10.434723854
    348      0   2  0.248100     8.578941345     0.654407620     9.502838135
    349      0   3  0.053000     8.145674706     0.745314121     9.888179779
    350      0   3  0.053000     9.527286530     0.795562506     9.527263641
    351      0   3  0.053000     7.908638954     0.039889812     8.973721504
    352      0   2  0.248100     7.664474487     0.313125730     8.862126350
    353      0   3  0.053000     7.353803158     0.259706587     8.622557640
    354      0   3  0.053000     6.668261051     0.000000000     8.838484764
    355      0   3  0.053000     7.957532406    -0.016235234     8.411515236
    356      0   2  0.248100     8.925794601     1.465541244     9.750585556
    357      0   3  0.053000     9.686517715     2.081244469    10.254413605
    358      0   3  0.053000     7.994917870     1.357133150     9.776956558
    359      0   3  0.053000     9.254021645     1.334506273     9.332445145
    360      0   4 -1.000000    11.336522102     2.398156643    10.719187737
    361      0   1 -0.628400    15.418844223     1.057639360     9.623677254
    362      0   2  0.248100    16.497249603     1.798694491    10.386980057
    363      0   3  0.053000    16.859565735     1.855994582    10.614836693
    364      0   3  0.053000    16.159727097     2.104460955    10.830757141
    365      0   3  0.053000    17.490139008     2.136967182    10.434723854
    366      0   2  0.248100    15.247202873     0.654407620     9.502838135
    367      0   3  0.053000    14.813936234     0.745314121     9.888179779
    368      0   3  0.053000    16.195547104     0.795562506     9.527263641
    369      0   3  0.053000    14.576900482     0.039889812     8.973721504
    370      0   2  0.248100    14.332735062     0.313125730     8.862126350
    371      0   3  0.053000    14.022064209     0.259706587     8.622557640
    372      0   3  0.053000    13.336522102     0.000000000     8.838484764
    373      0   3  0.053000    14.625793457    -0.016235234     8.411515236
    374      0   2  0.248100    15.594055176     1.465541244     9.750585556
    375      0   3  0.053000    16.354778290     2.081244469    10.254413605
    376      0   3  0.053000    14.663179398     1.357133150     9.776956558
    377      0   3  0.053000    15.922283173     1.334506273     9.332445145
    378      0   4 -1.000000    18.004783630     2.398156643    10.719187737
    379      0   1 -0.628400     2.082322598     5.472031593     9.623677254