LAMMPS data file containing the original structures and the polarizable gold

7506 atoms
3928 bonds
750 angles
900 dihedrals
0 impropers

6 atom types
3 bond types
3 angle types
1 dihedral types

-3.000000 61.985802 xlo xhi
-3.000000 61.997501 ylo yhi
-3.000000 36.356628 zlo zhi

Masses

1 14.006700
2 12.011150
3 1.007970
4 79.908997
5 195.960000
6 1.000000

Atoms

1 0 1 -0.628400 22.829309 25.362595 23.311062
2 0 2 0.248100 23.907713 26.103649 24.074364
3 0 3 0.053000 24.270031 26.160950 24.302221
4 0 3 0.053000 23.570190 26.409416 24.518143
5 0 3 0.053000 24.900604 26.441921 24.122108
6 0 2 0.248100 22.657667 24.959362 23.190224
7 0 3 0.053000 22.224400 25.050268 23.575565
8 0 3 0.053000 23.606012 25.100517 23.214649
9 0 3 0.053000 21.987364 24.344845 22.661106
10 0 2 0.248100 21.743200 24.618080 22.549511
11 0 3 0.053000 21.432528 24.564661 22.309942
12 0 3 0.053000 20.746986 24.304955 22.525869
13 0 3 0.053000 22.036259 24.288719 22.098900
14 0 2 0.248100 23.004520 25.770496 23.437971
15 0 3 0.053000 23.765244 26.386200 23.941799
16 0 3 0.053000 22.073643 25.662088 23.464342
17 0 3 0.053000 23.332747 25.639462 23.019831
18 0 4 -1.000000 25.415247 26.703112 24.406572
19 0 1 -0.628400 29.497570 25.362595 23.311062
20 0 2 0.248100 30.575974 26.103649 24.074364
21 0 3 0.053000 30.938292 26.160950 24.302221
22 0 3 0.053000 30.238453 26.409416 24.518143
23 0 3 0.053000 31.568865 26.441921 24.122108
24 0 2 0.248100 29.325928 24.959362 23.190224
25 0 3 0.053000 28.892662 25.050268 23.575565
26 0 3 0.053000 30.274273 25.100517 23.214649
27 0 3 0.053000 28.655624 24.344845 22.661106
28 0 2 0.248100 28.411461 24.618080 22.549511
29 0 3 0.053000 28.100790 24.564661 22.309942
30 0 3 0.053000 27.415247 24.304955 22.525869
31 0 3 0.053000 28.704519 24.288719 22.098900
32 0 2 0.248100 29.672781 25.770496 23.437971
33 0 3 0.053000 30.433504 26.386200 23.941799
34 0 3 0.053000 28.741905 25.662088 23.464342
35 0 3 0.053000 30.001007 25.639462 23.019831
36 0 4 -1.000000 32.083508 26.703112 24.406572
37 0 1 -0.628400 36.165833 25.362595 23.311062
38 0 2 0.248100 37.244236 26.103649 24.074364
39 0 3 0.053000 37.606552 26.160950 24.302221
40 0 3 0.053000 36.906715 26.409416 24.518143
41 0 3 0.053000 38.237125 26.441921 24.122108
42 0 2 0.248100 35.994190 24.959362 23.190224
43 0 3 0.053000 35.560921 25.050268 23.575565
44 0 3 0.053000 36.942535 25.100517 23.214649
45 0 3 0.053000 35.323887 24.344845 22.661106
46 0 2 0.248100 35.079720 24.618080 22.549511
47 0 3 0.053000 34.769051 24.564661 22.309942
48 0 3 0.053000 34.083508 24.304955 22.525869
49 0 3 0.053000 35.372780 24.288719 22.098900
50 0 2 0.248100 36.341042 25.770496 23.437971
51 0 3 0.053000 37.101765 26.386200 23.941799
52 0 3 0.053000 35.410164 25.662088 23.464342
53 0 3 0.053000 36.669270 25.639462 23.019831
54 0 4 -1.000000 38.751770 26.703112 24.406572
55 0 1 -0.628400 22.829309 29.776985 23.311062
56 0 2 0.248100 23.907713 30.518042 24.074364
57 0 3 0.053000 24.270031 30.575340 24.302221
58 0 3 0.053000 23.570190 30.823807 24.518143
59 0 3 0.053000 24.900604 30.856314 24.122108
60 0 2 0.248100 22.657667 29.373755 23.190224
61 0 3 0.053000 22.224400 29.464661 23.575565
62 0 3 0.053000 23.606012 29.514908 23.214649
63 0 3 0.053000 21.987364 28.759235 22.661106
64 0 2 0.248100 21.743200 29.032473 22.549511
65 0 3 0.053000 21.432528 28.979053 22.309942
66 0 3 0.053000 20.746986 28.719347 22.525869
67 0 3 0.053000 22.036259 28.703112 22.098900
68 0 2 0.248100 23.004520 30.184887 23.437971
69 0 3 0.053000 23.765244 30.800591 23.941799
70 0 3 0.053000 22.073643 30.076481 23.464342
71 0 3 0.053000 23.332747 30.053852 23.019831
72 0 4 -1.000000 25.415247 31.117504 24.406572
73 0 1 -0.628400 29.497570 29.776985 23.311062
74 0 2 0.248100 30.575974 30.518042 24.074364
75 0 3 0.053000 30.938292 30.575340 24.302221
76 0 3 0.053000 30.238453 30.823807 24.518143
77 0 3 0.053000 31.568865 30.856314 24.122108
78 0 2 0.248100 29.325928 29.373755 23.190224
79 0 3 0.053000 28.892662 29.464661 23.575565
80 0 3 0.053000 30.274273 29.514908 23.214649
81 0 3 0.053000 28.655624 28.759235 22.661106
82 0 2 0.248100 28.411461 29.032473 22.549511
83 0 3 0.053000 28.100790 28.979053 22.309942
84 0 3 0.053000 27.415247 28.719347 22.525869
85 0 3 0.053000 28.704519 28.703112 22.098900
86 0 2 0.248100 29.672781 30.184887 23.437971
87 0 3 0.053000 30.433504 30.800591 23.941799
88 0 3 0.053000 28.741905 30.076481 23.464342
89 0 3 0.053000 30.001007 30.053852 23.019831
90 0 4 -1.000000 32.083508 31.117504 24.406572
91 0 1 -0.628400 36.165833 29.776985 23.311062
92 0 2 0.248100 37.244236 30.518042 24.074364
93 0 3 0.053000 37.606552 30.575340 24.302221
94 0 3 0.053000 36.906715 30.823807 24.518143
95 0 3 0.053000 38.237125 30.856314 24.122108
96 0 2 0.248100 35.994190 29.373755 23.190224
97 0 3 0.053000 35.560921 29.464661 23.575565
98 0 3 0.053000 36.942535 29.514908 23.214649
99 0 3 0.053000 35.323887 28.759235 22.661106
100 0 2 0.248100 35.079720 29.032473 22.549511
101 0 3 0.053000 34.769051 28.979053 22.309942
102 0 3 0.053000 34.083508 28.719347 22.525869
103 0 3 0.053000 35.372780 28.703112 22.098900
104 0 2 0.248100 36.341042 30.184887 23.437971
105 0 3 0.053000 37.101765 30.800591 23.941799
106 0 3 0.053000 35.410164 30.076481 23.464342
107 0 3 0.053000 36.669270 30.053852 23.019831
108 0 4 -1.000000 38.751770 31.117504 24.406572
109 0 1 -0.628400 22.829309 34.191376 23.311062
110 0 2 0.248100 23.907713 34.932434 24.074364
111 0 3 0.053000 24.270031 34.989731 24.302221
112 0 3 0.053000 23.570190 35.238197 24.518143
113 0 3 0.053000 24.900604 35.270706 24.122108
114 0 2 0.248100 22.657667 33.788147 23.190224
115 0 3 0.053000 22.224400 33.879051 23.575565
116 0 3 0.053000 23.606012 33.929302 23.214649
117 0 3 0.053000 21.987364 33.173630 22.661106
118 0 2 0.248100 21.743200 33.446865 22.549511
119 0 3 0.053000 21.432528 33.393444 22.309942
120 0 3 0.053000 20.746986 33.133739 22.525869
121 0 3 0.053000 22.036259 33.117504 22.098900
122 0 2 0.248100 23.004520 34.599281 23.437971
123 0 3 0.053000 23.765244 35.214981 23.941799
124 0 3 0.053000 22.073643 34.490871 23.464342
125 0 3 0.053000 23.332747 34.468246 23.019831
126 0 4 -1.000000 25.415247 35.531895 24.406572
127 0 1 -0.628400 29.497570 34.191376 23.311062
128 0 2 0.248100 30.575974 34.932434 24.074364
129 0 3 0.053000 30.938292 34.989731 24.302221
130 0 3 0.053000 30.238453 35.238197 24.518143
131 0 3 0.053000 31.568865 35.270706 24.122108
132 0 2 0.248100 29.325928 33.788147 23.190224
133 0 3 0.053000 28.892662 33.879051 23.575565
134 0 3 0.053000 30.274273 33.929302 23.214649
135 0 3 0.053000 28.655624 33.173630 22.661106
136 0 2 0.248100 28.411461 33.446865 22.549511
137 0 3 0.053000 28.100790 33.393444 22.309942
138 0 3 0.053000 27.415247 33.133739 22.525869
139 0 3 0.053000 28.704519 33.117504 22.098900
140 0 2 0.248100 29.672781 34.599281 23.437971
141 0 3 0.053000 30.433504 35.214981 23.941799
142 0 3 0.053000 28.741905 34.490871 23.464342
143 0 3 0.053000 30.001007 34.468246 23.019831
144 0 4 -1.000000 32.083508 35.531895 24.406572
145 0 1 -0.628400 36.165833 34.191376 23.311062
146 0 2 0.248100 37.244236 34.932434 24.074364
147 0 3 0.053000 37.606552 34.989731 24.302221
148 0 3 0.053000 36.906715 35.238197 24.518143
149 0 3 0.053000 38.237125 35.270706 24.122108
150 0 2 0.248100 35.994190 33.788147 23.190224
151 0 3 0.053000 35.560921 33.879051 23.575565
152 0 3 0.053000 36.942535 33.929302 23.214649
153 0 3 0.053000 35.323887 33.173630 22.661106
154 0 2 0.248100 35.079720 33.446865 22.549511
155 0 3 0.053000 34.769051 33.393444 22.309942
156 0 3 0.053000 34.083508 33.133739 22.525869
157 0 3 0.053000 35.372780 33.117504 22.098900
158 0 2 0.248100 36.341042 34.599281 23.437971
159 0 3 0.053000 37.101765 35.214981 23.941799
160 0 3 0.053000 35.410164 34.490871 23.464342
161 0 3 0.053000 36.669270 34.468246 23.019831
162 0 4 -1.000000 38.751770 35.531895 24.406572
163 0 1 -0.628400 22.829309 25.362595 27.730305
164 0 2 0.248100 23.907713 26.103649 28.493607
165 0 3 0.053000 24.270031 26.160950 28.721464
166 0 3 0.053000 23.570190 26.409416 28.937386
167 0 3 0.053000 24.900604 26.441921 28.541351
168 0 2 0.248100 22.657667 24.959362 27.609465
169 0 3 0.053000 22.224400 25.050268 27.994806
170 0 3 0.053000 23.606012 25.100517 27.633892
171 0 3 0.053000 21.987364 24.344845 27.080349
172 0 2 0.248100 21.743200 24.618080 26.968754
173 0 3 0.053000 21.432528 24.564661 26.729183
174 0 3 0.053000 20.746986 24.304955 26.945112
175 0 3 0.053000 22.036259 24.288719 26.518143
176 0 2 0.248100 23.004520 25.770496 27.857212
177 0 3 0.053000 23.765244 26.386200 28.361042
178 0 3 0.053000 22.073643 25.662088 27.883583
179 0 3 0.053000 23.332747 25.639462 27.439072
180 0 4 -1.000000 25.415247 26.703112 28.825815
181 0 1 -0.628400 29.497570 25.362595 27.730305
182 0 2 0.248100 30.575974 26.103649 28.493607
183 0 3 0.053000 30.938292 26.160950 28.721464
184 0 3 0.053000 30.238453 26.409416 28.937386
185 0 3 0.053000 31.568865 26.441921 28.541351
186 0 2 0.248100 29.325928 24.959362 27.609465
187 0 3 0.053000 28.892662 25.050268 27.994806
188 0 3 0.053000 30.274273 25.100517 27.633892
189 0 3 0.053000 28.655624 24.344845 27.080349
190 0 2 0.248100 28.411461 24.618080 26.968754
191 0 3 0.053000 28.100790 24.564661 26.729183
192 0 3 0.053000 27.415247 24.304955 26.945112
193 0 3 0.053000 28.704519 24.288719 26.518143
194 0 2 0.248100 29.672781 25.770496 27.857212
195 0 3 0.053000 30.433504 26.386200 28.361042
196 0 3 0.053000 28.741905 25.662088 27.883583
197 0 3 0.053000 30.001007 25.639462 27.439072
198 0 4 -1.000000 32.083508 26.703112 28.825815
199 0 1 -0.628400 36.165833 25.362595 27.730305
200 0 2 0.248100 37.244236 26.103649 28.493607
201 0 3 0.053000 37.606552 26.160950 28.721464
202 0 3 0.053000 36.906715 26.409416 28.937386
203 0 3 0.053000 38.237125 26.441921 28.541351
204 0 2 0.248100 35.994190 24.959362 27.609465
205 0 3 0.053000 35.560921 25.050268 27.994806
206 0 3 0.053000 36.942535 25.100517 27.633892
207 0 3 0.053000 35.323887 24.344845 27.080349
208 0 2 0.248100 35.079720 24.618080 26.968754
209 0 3 0.053000 34.769051 24.564661 26.729183
210 0 3 0.053000 34.083508 24.304955 26.945112
211 0 3 0.053000 35.372780 24.288719 26.518143
212 0 2 0.248100 36.341042 25.770496 27.857212
213 0 3 0.053000 37.101765 26.386200 28.361042
214 0 3 0.053000 35.410164 25.662088 27.883583
215 0 3 0.053000 36.669270 25.639462 27.439072
216 0 4 -1.000000 38.751770 26.703112 28.825815
217 0 1 -0.628400 22.829309 29.776985 27.730305
218 0 2 0.248100 23.907713 30.518042 28.493607
219 0 3 0.053000 24.270031 30.575340 28.721464
220 0 3 0.053000 23.570190 30.823807 28.937386
221 0 3 0.053000 24.900604 30.856314 28.541351
222 0 2 0.248100 22.657667 29.373755 27.609465
223 0 3 0.053000 22.224400 29.464661 27.994806
224 0 3 0.053000 23.606012 29.514908 27.633892
225 0 3 0.053000 21.987364 28.759235 27.080349
226 0 2 0.248100 21.743200 29.032473 26.968754
227 0 3 0.053000 21.432528 28.979053 26.729183
228 0 3 0.053000 20.746986 28.719347 26.945112
229 0 3 0.053000 22.036259 28.703112 26.518143
230 0 2 0.248100 23.004520 30.184887 27.857212
231 0 3 0.053000 23.765244 30.800591 28.361042
232 0 3 0.053000 22.073643 30.076481 27.883583
233 0 3 0.053000 23.332747 30.053852 27.439072
234 0 4 -1.000000 25.415247 31.117504 28.825815
235 0 1 -0.628400 29.497570 29.776985 27.730305
236 0 2 0.248100 30.575974 30.518042 28.493607
237 0 3 0.053000 30.938292 30.575340 28.721464
238 0 3 0.053000 30.238453 30.823807 28.937386
239 0 3 0.053000 31.568865 30.856314 28.541351
240 0 2 0.248100 29.325928 29.373755 27.609465
241 0 3 0.053000 28.892662 29.464661 27.994806
242 0 3 0.053000 30.274273 29.514908 27.633892
243 0 3 0.053000 28.655624 28.759235 27.080349
244 0 2 0.248100 28.411461 29.032473 26.968754
245 0 3 0.053000 28.100790 28.979053 26.729183
246 0 3 0.053000 27.415247 28.719347 26.945112
247 0 3 0.053000 28.704519 28.703112 26.518143
248 0 2 0.248100 29.672781 30.184887 27.857212
249 0 3 0.053000 30.433504 30.800591 28.361042
250 0 3 0.053000 28.741905 30.076481 27.883583
251 0 3 0.053000 30.001007 30.053852 27.439072
252 0 4 -1.000000 32.083508 31.117504 28.825815
253 0 1 -0.628400 36.165833 29.776985 27.730305
254 0 2 0.248100 37.244236 30.518042 28.493607
255 0 3 0.053000 37.606552 30.575340 28.721464
256 0 3 0.053000 36.906715 30.823807 28.937386
257 0 3 0.053000 38.237125 30.856314 28.541351
258 0 2 0.248100 35.994190 29.373755 27.609465
259 0 3 0.053000 35.560921 29.464661 27.994806
260 0 3 0.053000 36.942535 29.514908 27.633892
261 0 3 0.053000 35.323887 28.759235 27.080349
262 0 2 0.248100 35.079720 29.032473 26.968754
263 0 3 0.053000 34.769051 28.979053 26.729183
264 0 3 0.053000 34.083508 28.719347 26.945112
265 0 3 0.053000 35.372780 28.703112 26.518143
266 0 2 0.248100 36.341042 30.184887 27.857212
267 0 3 0.053000 37.101765 30.800591 28.361042
268 0 3 0.053000 35.410164 30.076481 27.883583
269 0 3 0.053000 36.669270 30.053852 27.439072
270 0 4 -1.000000 38.751770 31.117504 28.825815
271 0 1 -0.628400 22.829309 34.191376 27.730305
272 0 2 0.248100 23.907713 34.932434 28.493607
273 0 3 0.053000 24.270031 34.989731 28.721464
274 0 3 0.053000 23.570190 35.238197 28.937386
275 0 3 0.053000 24.900604 35.270706 28.541351
276 0 2 0.248100 22.657667 33.788147 27.609465
277 0 3 0.053000 22.224400 33.879051 27.994806
278 0 3 0.053000 23.606012 33.929302 27.633892
279 0 3 0.053000 21.987364 33.173630 27.080349
280 0 2 0.248100 21.743200 33.446865 26.968754
281 0 3 0.053000 21.432528 33.393444 26.729183
282 0 3 0.053000 20.746986 33.133739 26.945112
283 0 3 0.053000 22.036259 33.117504 26.518143
284 0 2 0.248100 23.004520 34.599281 27.857212
285 0 3 0.053000 23.765244 35.214981 28.361042
286 0 3 0.053000 22.073643 34.490871 27.883583
287 0 3 0.053000 23.332747 34.468246 27.439072
288 0 4 -1.000000 25.415247 35.531895 28.825815
289 0 1 -0.628400 29.497570 34.191376 27.730305
290 0 2 0.248100 30.575974 34.932434 28.493607
291 0 3 0.053000 30.938292 34.989731 28.721464
292 0 3 0.053000 30.238453 35.238197 28.937386
293 0 3 0.053000 31.568865 35.270706 28.541351
294 0 2 0.248100 29.325928 33.788147 27.609465
295 0 3 0.053000 28.892662 33.879051 27.994806
296 0 3 0.053000 30.274273 33.929302 27.633892
297 0 3 0.053000 28.655624 33.173630 27.080349
298 0 2 0.248100 28.411461 33.446865 26.968754
299 0 3 0.053000 28.100790 33.393444 26.729183
300 0 3 0.053000 27.415247 33.133739 26.945112
301 0 3 0.053000 28.704519 33.117504 26.518143
302 0 2 0.248100 29.672781 34.599281 27.857212
303 0 3 0.053000 30.433504 35.214981 28.361042
304 0 3 0.053000 28.741905 34.490871 27.883583
305 0 3 0.053000 30.001007 34.468246 27.439072
306 0 4 -1.000000 32.083508 35.531895 28.825815
307 0 1 -0.628400 36.165833 34.191376 27.730305
308 0 2 0.248100 37.244236 34.932434 28.493607
309 0 3 0.053000 37.606552 34.989731 28.721464
310 0 3 0.053000 36.906715 35.238197 28.937386
311 0 3 0.053000 38.237125 35.270706 28.541351
312 0 2 0.248100 35.994190 33.788147 27.609465
313 0 3 0.053000 35.560921 33.879051 27.994806
314 0 3 0.053000 36.942535 33.929302 27.633892
315 0 3 0.053000 35.323887 33.173630 27.080349
316 0 2 0.248100 35.079720 33.446865 26.968754
317 0 3 0.053000 34.769051 33.393444 26.729183
318 0 3 0.053000 34.083508 33.133739 26.945112
319 0 3 0.053000 35.372780 33.117504 26.518143
320 0 2 0.248100 36.341042 34.599281 27.857212
321 0 3 0.053000 37.101765 35.214981 28.361042
322 0 3 0.053000 35.410164 34.490871 27.883583
323 0 3 0.053000 36.669270 34.468246 27.439072
324 0 4 -1.000000 38.751770 35.531895 28.825815
325 0 1 -0.628400 22.829309 25.362595 32.149548
326 0 2 0.248100 23.907713 26.103649 32.912849
327 0 3 0.053000 24.270031 26.160950 33.140705
328 0 3 0.053000 23.570190 26.409416 33.356628
329 0 3 0.053000 24.900604 26.441921 32.960594
330 0 2 0.248100 22.657667 24.959362 32.028709
331 0 3 0.053000 22.224400 25.050268 32.414047
332 0 3 0.053000 23.606012 25.100517 32.053131
333 0 3 0.053000 21.987364 24.344845 31.499592
334 0 2 0.248100 21.743200 24.618080 31.387997
335 0 3 0.053000 21.432528 24.564661 31.148426
336 0 3 0.053000 20.746986 24.304955 31.364353
337 0 3 0.053000 22.036259 24.288719 30.937386
338 0 2 0.248100 23.004520 25.770496 32.276455
339 0 3 0.053000 23.765244 26.386200 32.780281
340 0 3 0.053000 22.073643 25.662088 32.302826
341 0 3 0.053000 23.332747 25.639462 31.858315
342 0 4 -1.000000 25.415247 26.703112 33.245056
343 0 1 -0.628400 29.497570 25.362595 32.149548
344 0 2 0.248100 30.575974 26.103649 32.912849
345 0 3 0.053000 30.938292 26.160950 33.140705
346 0 3 0.053000 30.238453 26.409416 33.356628
347 0 3 0.053000 31.568865 26.441921 32.960594
348 0 2 0.248100 29.325928 24.959362 32.028709
349 0 3 0.053000 28.892662 25.050268 32.414047
350 0 3 0.053000 30.274273 25.100517 32.053131
351 0 3 0.053000 28.655624 24.344845 31.499592
352 0 2 0.248100 28.411461 24.618080 31.387997
353 0 3 0.053000 28.100790 24.564661 31.148426
354 0 3 0.053000 27.415247 24.304955 31.364353
355 0 3 0.053000 28.704519 24.288719 30.937386
356 0 2 0.248100 29.672781 25.770496 32.276455
357 0 3 0.053000 30.433504 26.386200 32.780281
358 0 3 0.053000 28.741905 25.662088 32.302826
359 0 3 0.053000 30.001007 25.639462 31.858315
360 0 4 -1.000000 32.083508 26.703112 33.245056
361 0 1 -0.628400 36.165833 25.362595 32.149548
362 0 2 0.248100 37.244236 26.103649 32.912849
363 0 3 0.053000 37.606552 26.160950 33.140705
364 0 3 0.053000 36.906715 26.409416 33.356628
365 0 3 0.053000 38.237125 26.441921 32.960594
366 0 2 0.248100 35.994190 24.959362 32.028709
367 0 3 0.053000 35.560921 25.050268 32.414047
368 0 3 0.053000 36.942535 25.100517 32.053131
369 0 3 0.053000 35.323887 24.344845 31.499592
370 0 2 0.248100 35.079720 24.618080 31.387997
371 0 3 0.053000 34.769051 24.564661 31.148426
372 0 3 0.053000 34.083508 24.304955 31.364353
373 0 3 0.053000 35.372780 24.288719 30.937386
374 0 2 0.248100 36.341042 25.770496 32.276455
375 0 3 0.053000 37.101765 26.386200 32.780281
376 0 3 0.053000 35.410164 25.662088 32.302826
377 0 3 0.053000 36.669270 25.639462 31.858315
378 0 4 -1.000000 38.751770 26.703112 33.245056
379 0 1 -0.628400 22.829309 29.776985 32.149548
380 0 2 0.248100 23.907713 30.518042 32.912849
381 0 3 0.053000 24.270031 30.575340 33.140705
382 0 3 0.053000 23.570190 30.823807 33.356628
383 0 3 0.053000 24.900604 30.856314 32.960594
384 0 2 0.248100 22.657667 29.373755 32.028709
385 0 3 0.053000 22.224400 29.464661 32.414047
386 0 3 0.053000 23.606012 29.514908 32.053131
387 0 3 0.053000 21.987364 28.759235 31.499592
388 0 2 0.248100 21.743200 29.032473 31.387997
389 0 3 0.053000 21.432528 28.979053 31.148426
390 0 3 0.053000 20.746986 28.719347 31.364353
391 0 3 0.053000 22.036259 28.703112 30.937386
392 0 2 0.248100 23.004520 30.184887 32.276455
393 0 3 0.053000 23.765244 30.800591 32.780281
394 0 3 0.053000 22.073643 30.076481 32.302826
395 0 3 0.053000 23.332747 30.053852 31.858315
396 0 4 -1.000000 25.415247 31.117504 33.245056
397 0 1 -0.628400 29.497570 29.776985 32.149548
398 0 2 0.248100 30.575974 30.518042 32.912849
399 0 3 0.053000 30.938292 30.575340 33.140705
400 0 3 0.053000 30.238453 30.823807 33.356628
401 0 3 0.053000 31.568865 30.856314 32.960594
402 0 2 0.248100 29.325928 29.373755 32.028709
403 0 3 0.053000 28.892662 29.464661 32.414047
404 0 3 0.053000 30.274273 29.514908 32.053131
405 0 3 0.053000 28.655624 28.759235 31.499592
406 0 2 0.248100 28.411461 29.032473 31.387997
407 0 3 0.053000 28.100790 28.979053 31.148426
408 0 3 0.053000 27.415247 28.719347 31.364353
409 0 3 0.053000 28.704519 28.703112 30.937386
410 0 2 0.248100 29.672781 30.184887 32.276455
411 0 3 0.053000 30.433504 30.800591 32.780281
412 0 3 0.053000 28.741905 30.076481 32.302826
413 0 3 0.053000 30.001007 30.053852 31.858315
414 0 4 -1.000000 32.083508 31.117504 33.245056
415 0 1 -0.628400 36.165833 29.776985 32.149548
416 0 2 0.248100 37.244236 30.518042 32.912849
417 0 3 0.053000 37.606552 30.575340 33.140705
418 0 3 0.053000 36.906715 30.823807 33.356628
419 0 3 0.053000 38.237125 30.856314 32.960594
420 0 2 0.248100 35.994190 29.373755 32.028709
421 0 3 0.053000 35.560921 29.464661 32.414047
422 0 3 0.053000 36.942535 29.514908 32.053131
423 0 3 0.053000 35.323887 28.759235 31.499592
424 0 2 0.248100 35.079720 29.032473 31.387997
425 0 3 0.053000 34.769051 28.979053 31.148426
426 0 3 0.053000 34.083508 28.719347 31.364353
427 0 3 0.053000 35.372780 28.703112 30.937386
428 0 2 0.248100 36.341042 30.184887 32.276455
429 0 3 0.053000 37.101765 30.800591 32.780281
430 0 3 0.053000 35.410164 30.076481 32.302826
431 0 3 0.053000 36.669270 30.053852 31.858315
432 0 4 -1.000000 38.751770 31.117504 33.245056
433 0 1 -0.628400 22.829309 34.191376 32.149548
434 0 2 0.248100 23.907713 34.932434 32.912849
435 0 3 0.053000 24.270031 34.989731 33.140705
436 0 3 0.053000 23.570190 35.238197 33.356628
437 0 3 0.053000 24.900604 35.270706 32.960594
438 0 2 0.248100 22.657667 33.788147 32.028709
439 0 3 0.053000 22.224400 33.879051 32.414047
440 0 3 0.053000 23.606012 33.929302 32.053131
441 0 3 0.053000 21.987364 33.173630 31.499592
442 0 2 0.248100 21.743200 33.446865 31.387997
443 0 3 0.053000 21.432528 33.393444 31.148426
444 0 3 0.053000 20.746986 33.133739 31.364353
445 0 3 0.053000 22.036259 33.117504 30.937386
446 0 2 0.248100 23.004520 34.599281 32.276455
447 0 3 0.053000 23.765244 35.214981 32.780281
448 0 3 0.053000 22.073643 34.490871 32.302826
449 0 3 0.053000 23.332747 34.468246 31.858315
450 0 4 -1.000000 25.415247 35.531895 33.245056
451 1 5 1.0 2.492360 58.997501 0.000000
452 1 5 1.0 0.000000 54.680599 0.000000
453 1 5 1.0 2.492360 56.119499 0.000000
454 1 5 1.0 2.492360 53.241600 0.000000
455 1 5 1.0 0.000000 57.558498 0.000000
456 1 5 1.0 0.830785 58.997501 2.349820
457 1 5 1.0 0.830785 56.119499 2.349820
458 1 5 1.0 0.000000 48.924702 0.000000
459 1 5 1.0 2.492360 50.363701 0.000000
460 1 5 1.0 2.492360 47.485802 0.000000
461 1 5 1.0 0.000000 51.802601 0.000000
462 1 5 1.0 0.830785 53.241600 2.349820
463 1 5 1.0 0.830785 50.363701 2.349820
464 1 5 1.0 0.000000 43.168900 0.000000
465 1 5 1.0 2.492360 44.607800 0.000000
466 1 5 1.0 2.492360 41.729900 0.000000
467 1 5 1.0 0.000000 46.046799 0.000000
468 1 5 1.0 0.830785 47.485802 2.349820
469 1 5 1.0 0.830785 44.607800 2.349820
470 1 5 1.0 0.000000 37.412998 0.000000
471 1 5 1.0 2.492360 38.852001 0.000000
472 1 5 1.0 2.492360 35.974098 0.000000
473 1 5 1.0 0.000000 40.290901 0.000000
474 1 5 1.0 0.830785 41.729900 2.349820
475 1 5 1.0 0.830785 38.852001 2.349820
476 1 5 1.0 0.000000 31.657200 0.000000
477 1 5 1.0 2.492360 33.096100 0.000000
478 1 5 1.0 2.492360 30.218201 0.000000
479 1 5 1.0 0.000000 34.535099 0.000000
480 1 5 1.0 0.830785 35.974098 2.349820
481 1 5 1.0 0.830785 33.096100 2.349820
482 1 5 1.0 0.000000 25.901300 0.000000
483 1 5 1.0 2.492360 27.340300 0.000000
484 1 5 1.0 2.492360 24.462400 0.000000
485 1 5 1.0 0.000000 28.779200 0.000000
486 1 5 1.0 0.830785 30.218201 2.349820
487 1 5 1.0 0.830785 27.340300 2.349820
488 1 5 1.0 0.000000 20.145500 0.000000
489 1 5 1.0 2.492360 21.584400 0.000000
490 1 5 1.0 2.492360 18.706499 0.000000
491 1 5 1.0 0.000000 23.023399 0.000000
492 1 5 1.0 0.830785 24.462400 2.349820
493 1 5 1.0 0.830785 21.584400 2.349820
494 1 5 1.0 0.000000 14.389600 0.000000
495 1 5 1.0 2.492360 15.828600 0.000000
496 1 5 1.0 2.492360 12.950700 0.000000
497 1 5 1.0 0.000000 17.267500 0.000000
498 1 5 1.0 0.830785 18.706499 2.349820
499 1 5 1.0 0.830785 15.828600 2.349820
500 1 5 1.0 0.000000 8.633770 0.000000
501 1 5 1.0 2.492360 10.072700 0.000000
502 1 5 1.0 2.492360 7.194810 0.000000
503 1 5 1.0 0.000000 11.511700 0.000000
504 1 5 1.0 0.830785 12.950700 2.349820
505 1 5 1.0 0.830785 10.072700 2.349820
506 1 5 1.0 0.000000 2.877920 0.000000
507 1 5 1.0 2.492360 4.316890 0.000000
508 1 5 1.0 2.492360 1.438960 0.000000
509 1 5 1.0 0.000000 5.755850 0.000000
510 1 5 1.0 0.830785 7.194810 2.349820
511 1 5 1.0 0.830785 4.316890 2.349820
512 1 5 1.0 0.000000 0.000000 0.000000
513 1 5 1.0 0.830785 1.438960 2.349820
514 1 5 1.0 4.984710 57.558498 0.000000
515 1 5 1.0 7.477070 58.997501 0.000000
516 1 5 1.0 7.477070 56.119499 0.000000
517 1 5 1.0 5.815500 58.997501 2.349820
518 1 5 1.0 4.984710 51.802601 0.000000
519 1 5 1.0 7.477070 53.241600 0.000000
520 1 5 1.0 7.477070 50.363701 0.000000
521 1 5 1.0 4.984710 54.680599 0.000000
522 1 5 1.0 3.323140 54.680599 2.349820
523 1 5 1.0 5.815500 56.119499 2.349820
524 1 5 1.0 5.815500 53.241600 2.349820
525 1 5 1.0 3.323140 57.558498 2.349820
526 1 5 1.0 1.661570 57.558498 4.699630
527 1 5 1.0 4.153930 58.997501 4.699630
528 1 5 1.0 4.153930 56.119499 4.699630
529 1 5 1.0 2.492360 58.997501 7.049450
530 1 5 1.0 4.984710 46.046799 0.000000
531 1 5 1.0 7.477070 47.485802 0.000000
532 1 5 1.0 7.477070 44.607800 0.000000
533 1 5 1.0 4.984710 48.924702 0.000000
534 1 5 1.0 3.323140 48.924702 2.349820
535 1 5 1.0 5.815500 50.363701 2.349820
536 1 5 1.0 5.815500 47.485802 2.349820
537 1 5 1.0 3.323140 51.802601 2.349820
538 1 5 1.0 1.661570 51.802601 4.699630
539 1 5 1.0 4.153930 53.241600 4.699630
540 1 5 1.0 4.153930 50.363701 4.699630
541 1 5 1.0 1.661570 54.680599 4.699630
542 1 5 1.0 0.000000 54.680599 7.049450
543 1 5 1.0 2.492360 56.119499 7.049450
544 1 5 1.0 2.492360 53.241600 7.049450
545 1 5 1.0 0.000000 57.558498 7.049450
546 1 5 1.0 0.830785 58.997501 9.399270
547 1 5 1.0 0.830785 56.119499 9.399270
548 1 5 1.0 4.984710 40.290901 0.000000
549 1 5 1.0 7.477070 41.729900 0.000000
550 1 5 1.0 7.477070 38.852001 0.000000
551 1 5 1.0 4.984710 43.168900 0.000000
552 1 5 1.0 3.323140 43.168900 2.349820
553 1 5 1.0 5.815500 44.607800 2.349820
554 1 5 1.0 5.815500 41.729900 2.349820
555 1 5 1.0 3.323140 46.046799 2.349820
556 1 5 1.0 1.661570 46.046799 4.699630
557 1 5 1.0 4.153930 47.485802 4.699630
558 1 5 1.0 4.153930 44.607800 4.699630
559 1 5 1.0 1.661570 48.924702 4.699630
560 1 5 1.0 0.000000 48.924702 7.049450
561 1 5 1.0 2.492360 50.363701 7.049450
562 1 5 1.0 2.492360 47.485802 7.049450
563 1 5 1.0 0.000000 51.802601 7.049450
564 1 5 1.0 0.830785 53.241600 9.399270
565 1 5 1.0 0.830785 50.363701 9.399270
566 1 5 1.0 4.984710 34.535099 0.000000
567 1 5 1.0 7.477070 35.974098 0.000000
568 1 5 1.0 7.477070 33.096100 0.000000
569 1 5 1.0 4.984710 37.412998 0.000000
570 1 5 1.0 3.323140 37.412998 2.349820
571 1 5 1.0 5.815500 38.852001 2.349820
572 1 5 1.0 5.815500 35.974098 2.349820
573 1 5 1.0 3.323140 40.290901 2.349820
574 1 5 1.0 1.661570 40.290901 4.699630
575 1 5 1.0 4.153930 41.729900 4.699630
576 1 5 1.0 4.153930 38.852001 4.699630
577 1 5 1.0 1.661570 43.168900 4.699630
578 1 5 1.0 0.000000 43.168900 7.049450
579 1 5 1.0 2.492360 44.607800 7.049450
580 1 5 1.0 2.492360 41.729900 7.049450
581 1 5 1.0 0.000000 46.046799 7.049450
582 1 5 1.0 0.830785 47.485802 9.399270
583 1 5 1.0 0.830785 44.607800 9.399270
584 1 5 1.0 4.984710 28.779200 0.000000
585 1 5 1.0 7.477070 30.218201 0.000000
586 1 5 1.0 7.477070 27.340300 0.000000
587 1 5 1.0 4.984710 31.657200 0.000000
588 1 5 1.0 3.323140 31.657200 2.349820
589 1 5 1.0 5.815500 33.096100 2.349820
590 1 5 1.0 5.815500 30.218201 2.349820
591 1 5 1.0 3.323140 34.535099 2.349820
592 1 5 1.0 1.661570 34.535099 4.699630
593 1 5 1.0 4.153930 35.974098 4.699630
594 1 5 1.0 4.153930 33.096100 4.699630
595 1 5 1.0 1.661570 37.412998 4.699630
596 1 5 1.0 0.000000 37.412998 7.049450
597 1 5 1.0 2.492360 38.852001 7.049450
598 1 5 1.0 2.492360 35.974098 7.049450
599 1 5 1.0 0.000000 40.290901 7.049450
600 1 5 1.0 0.830785 41.729900 9.399270
601 1 5 1.0 0.830785 38.852001 9.399270
602 1 5 1.0 4.984710 23.023399 0.000000
603 1 5 1.0 7.477070 24.462400 0.000000
604 1 5 1.0 7.477070 21.584400 0.000000
605 1 5 1.0 4.984710 25.901300 0.000000
606 1 5 1.0 3.323140 25.901300 2.349820
607 1 5 1.0 5.815500 27.340300 2.349820
608 1 5 1.0 5.815500 24.462400 2.349820
609 1 5 1.0 3.323140 28.779200 2.349820
610 1 5 1.0 1.661570 28.779200 4.699630
611 1 5 1.0 4.153930 30.218201 4.699630
612 1 5 1.0 4.153930 27.340300 4.699630
613 1 5 1.0 1.661570 31.657200 4.699630
614 1 5 1.0 0.000000 31.657200 7.049450
615 1 5 1.0 2.492360 33.096100 7.049450
616 1 5 1.0 2.492360 30.218201 7.049450
617 1 5 1.0 0.000000 34.535099 7.049450
618 1 5 1.0 0.830785 35.974098 9.399270
619 1 5 1.0 0.830785 33.096100 9.399270
620 1 5 1.0 4.984710 17.267500 0.000000
621 1 5 1.0 7.477070 18.706499 0.000000
622 1 5 1.0 7.477070 15.828600 0.000000
623 1 5 1.0 4.984710 20.145500 0.000000
624 1 5 1.0 3.323140 20.145500 2.349820
625 1 5 1.0 5.815500 21.584400 2.349820
626 1 5 1.0 5.815500 18.706499 2.349820
627 1 5 1.0 3.323140 23.023399 2.349820
628 1 5 1.0 1.661570 23.023399 4.699630
629 1 5 1.0 4.153930 24.462400 4.699630
630 1 5 1.0 4.153930 21.584400 4.699630
631 1 5 1.0 1.661570 25.901300 4.699630
632 1 5 1.0 0.000000 25.901300 7.049450
633 1 5 1.0 2.492360 27.340300 7.049450
634 1 5 1.0 2.492360 24.462400 7.049450
635 1 5 1.0 0.000000 28.779200 7.049450
636 1 5 1.0 0.830785 30.218201 9.399270
637 1 5 1.0 0.830785 27.340300 9.399270
638 1 5 1.0 4.984710 11.511700 0.000000
639 1 5 1.0 7.477070 12.950700 0.000000
640 1 5 1.0 7.477070 10.072700 0.000000
641 1 5 1.0 4.984710 14.389600 0.000000
642 1 5 1.0 3.323140 14.389600 2.349820
643 1 5 1.0 5.815500 15.828600 2.349820
644 1 5 1.0 5.815500 12.950700 2.349820
645 1 5 1.0 3.323140 17.267500 2.349820
646 1 5 1.0 1.661570 17.267500 4.699630
647 1 5 1.0 4.153930 18.706499 4.699630
648 1 5 1.0 4.153930 15.828600 4.699630
649 1 5 1.0 1.661570 20.145500 4.699630
650 1 5 1.0 0.000000 20.145500 7.049450
651 1 5 1.0 2.492360 21.584400 7.049450
652 1 5 1.0 2.492360 18.706499 7.049450
653 1 5 1.0 0.000000 23.023399 7.049450
654 1 5 1.0 0.830785 24.462400 9.399270
655 1 5 1.0 0.830785 21.584400 9.399270
656 1 5 1.0 4.984710 5.755850 0.000000
657 1 5 1.0 7.477070 7.194810 0.000000
658 1 5 1.0 7.477070 4.316890 0.000000
659 1 5 1.0 4.984710 8.633770 0.000000
660 1 5 1.0 3.323140 8.633770 2.349820
661 1 5 1.0 5.815500 10.072700 2.349820
662 1 5 1.0 5.815500 7.194810 2.349820
663 1 5 1.0 3.323140 11.511700 2.349820