LAMMPS data file containing the original structures and the polarizable gold

9630 atoms
5865 bonds
4500 angles
5400 dihedrals
0 impropers

6 atom types
3 bond types
3 angle types
1 dihedral types

-3.000000 62.014999 xlo xhi
-3.000000 61.997501 ylo yhi
-3.000000 45.485813 zlo zhi

Masses

1 14.006700
2 12.011150
3 1.007970
4 79.908997
5 195.960000
6 1.000000

Atoms

1 0 1 -0.628400 12.601076 18.763868 23.601763
2 0 2 0.248100 13.679480 19.504923 24.365065
3 0 3 0.053000 14.041798 19.562223 24.592922
4 0 3 0.053000 13.341957 19.810690 24.808844
5 0 3 0.053000 14.672370 19.843195 24.412809
6 0 2 0.248100 12.429434 18.360636 23.480925
7 0 3 0.053000 11.996166 18.451542 23.866264
8 0 3 0.053000 13.377779 18.501791 23.505350
9 0 3 0.053000 11.759130 17.746119 22.951807
10 0 2 0.248100 11.514967 18.019354 22.840212
11 0 3 0.053000 11.204295 17.965935 22.600643
12 0 3 0.053000 10.518753 17.706228 22.816570
13 0 3 0.053000 11.808024 17.689993 22.389601
14 0 2 0.248100 12.776286 19.171770 23.728672
15 0 3 0.053000 13.537010 19.787472 24.232500
16 0 3 0.053000 11.845409 19.063362 23.755043
17 0 3 0.053000 13.104513 19.040735 23.310532
18 0 4 -1.000000 15.187014 20.104385 24.697273
19 0 1 -0.628400 19.269337 18.763868 23.601763
20 0 2 0.248100 20.347740 19.504923 24.365065
21 0 3 0.053000 20.710058 19.562223 24.592922
22 0 3 0.053000 20.010220 19.810690 24.808844
23 0 3 0.053000 21.340631 19.843195 24.412809
24 0 2 0.248100 19.097694 18.360636 23.480925
25 0 3 0.053000 18.664429 18.451542 23.866264
26 0 3 0.053000 20.046040 18.501791 23.505350
27 0 3 0.053000 18.427391 17.746119 22.951807
28 0 2 0.248100 18.183228 18.019354 22.840212
29 0 3 0.053000 17.872557 17.965935 22.600643
30 0 3 0.053000 17.187014 17.706228 22.816570
31 0 3 0.053000 18.476286 17.689993 22.389601
32 0 2 0.248100 19.444548 19.171770 23.728672
33 0 3 0.053000 20.205271 19.787472 24.232500
34 0 3 0.053000 18.513672 19.063362 23.755043
35 0 3 0.053000 19.772774 19.040735 23.310532
36 0 4 -1.000000 21.855274 20.104385 24.697273
37 0 1 -0.628400 25.937597 18.763868 23.601763
38 0 2 0.248100 27.016003 19.504923 24.365065
39 0 3 0.053000 27.378319 19.562223 24.592922
40 0 3 0.053000 26.678480 19.810690 24.808844
41 0 3 0.053000 28.008892 19.843195 24.412809
42 0 2 0.248100 25.765957 18.360636 23.480925
43 0 3 0.053000 25.332689 18.451542 23.866264
44 0 3 0.053000 26.714300 18.501791 23.505350
45 0 3 0.053000 25.095654 17.746119 22.951807
46 0 2 0.248100 24.851488 18.019354 22.840212
47 0 3 0.053000 24.540817 17.965935 22.600643
48 0 3 0.053000 23.855274 17.706228 22.816570
49 0 3 0.053000 25.144547 17.689993 22.389601
50 0 2 0.248100 26.112808 19.171770 23.728672
51 0 3 0.053000 26.873531 19.787472 24.232500
52 0 3 0.053000 25.181932 19.063362 23.755043
53 0 3 0.053000 26.441036 19.040735 23.310532
54 0 4 -1.000000 28.523537 20.104385 24.697273
55 0 1 -0.628400 32.605858 18.763868 23.601763
56 0 2 0.248100 33.684265 19.504923 24.365065
57 0 3 0.053000 34.046581 19.562223 24.592922
58 0 3 0.053000 33.346741 19.810690 24.808844
59 0 3 0.053000 34.677155 19.843195 24.412809
60 0 2 0.248100 32.434219 18.360636 23.480925
61 0 3 0.053000 32.000950 18.451542 23.866264
62 0 3 0.053000 33.382561 18.501791 23.505350
63 0 3 0.053000 31.763914 17.746119 22.951807
64 0 2 0.248100 31.519751 18.019354 22.840212
65 0 3 0.053000 31.209078 17.965935 22.600643
66 0 3 0.053000 30.523537 17.706228 22.816570
67 0 3 0.053000 31.812809 17.689993 22.389601
68 0 2 0.248100 32.781071 19.171770 23.728672
69 0 3 0.053000 33.541794 19.787472 24.232500
70 0 3 0.053000 31.850193 19.063362 23.755043
71 0 3 0.053000 33.109299 19.040735 23.310532
72 0 4 -1.000000 35.191795 20.104385 24.697273
73 0 1 -0.628400 39.274120 18.763868 23.601763
74 0 2 0.248100 40.352524 19.504923 24.365065
75 0 3 0.053000 40.714844 19.562223 24.592922
76 0 3 0.053000 40.014999 19.810690 24.808844
77 0 3 0.053000 41.345413 19.843195 24.412809
78 0 2 0.248100 39.102478 18.360636 23.480925
79 0 3 0.053000 38.669212 18.451542 23.866264
80 0 3 0.053000 40.050823 18.501791 23.505350
81 0 3 0.053000 38.432175 17.746119 22.951807
82 0 2 0.248100 38.188011 18.019354 22.840212
83 0 3 0.053000 37.877338 17.965935 22.600643
84 0 3 0.053000 37.191795 17.706228 22.816570
85 0 3 0.053000 38.481071 17.689993 22.389601
86 0 2 0.248100 39.449329 19.171770 23.728672
87 0 3 0.053000 40.210052 19.787472 24.232500
88 0 3 0.053000 38.518456 19.063362 23.755043
89 0 3 0.053000 39.777557 19.040735 23.310532
90 0 4 -1.000000 41.860058 20.104385 24.697273
91 0 1 -0.628400 45.942379 18.763868 23.601763
92 0 2 0.248100 47.020786 19.504923 24.365065
93 0 3 0.053000 47.383102 19.562223 24.592922
94 0 3 0.053000 46.683262 19.810690 24.808844
95 0 3 0.053000 48.013676 19.843195 24.412809
96 0 2 0.248100 45.770737 18.360636 23.480925
97 0 3 0.053000 45.337471 18.451542 23.866264
98 0 3 0.053000 46.719082 18.501791 23.505350
99 0 3 0.053000 45.100437 17.746119 22.951807
100 0 2 0.248100 44.856270 18.019354 22.840212
101 0 3 0.053000 44.545601 17.965935 22.600643
102 0 3 0.053000 43.860058 17.706228 22.816570
103 0 3 0.053000 45.149330 17.689993 22.389601
104 0 2 0.248100 46.117592 19.171770 23.728672
105 0 3 0.053000 46.878315 19.787472 24.232500
106 0 3 0.053000 45.186714 19.063362 23.755043
107 0 3 0.053000 46.445820 19.040735 23.310532
108 0 4 -1.000000 48.528320 20.104385 24.697273
109 0 1 -0.628400 12.601076 23.178261 23.601763
110 0 2 0.248100 13.679480 23.919315 24.365065
111 0 3 0.053000 14.041798 23.976616 24.592922
112 0 3 0.053000 13.341957 24.225082 24.808844
113 0 3 0.053000 14.672370 24.257587 24.412809
114 0 2 0.248100 12.429434 22.775028 23.480925
115 0 3 0.053000 11.996166 22.865934 23.866264
116 0 3 0.053000 13.377779 22.916183 23.505350
117 0 3 0.053000 11.759130 22.160511 22.951807
118 0 2 0.248100 11.514967 22.433746 22.840212
119 0 3 0.053000 11.204295 22.380327 22.600643
120 0 3 0.053000 10.518753 22.120621 22.816570
121 0 3 0.053000 11.808024 22.104385 22.389601
122 0 2 0.248100 12.776286 23.586163 23.728672
123 0 3 0.053000 13.537010 24.201864 24.232500
124 0 3 0.053000 11.845409 23.477753 23.755043
125 0 3 0.053000 13.104513 23.455128 23.310532
126 0 4 -1.000000 15.187014 24.518776 24.697273
127 0 1 -0.628400 19.269337 23.178261 23.601763
128 0 2 0.248100 20.347740 23.919315 24.365065
129 0 3 0.053000 20.710058 23.976616 24.592922
130 0 3 0.053000 20.010220 24.225082 24.808844
131 0 3 0.053000 21.340631 24.257587 24.412809
132 0 2 0.248100 19.097694 22.775028 23.480925
133 0 3 0.053000 18.664429 22.865934 23.866264
134 0 3 0.053000 20.046040 22.916183 23.505350
135 0 3 0.053000 18.427391 22.160511 22.951807
136 0 2 0.248100 18.183228 22.433746 22.840212
137 0 3 0.053000 17.872557 22.380327 22.600643
138 0 3 0.053000 17.187014 22.120621 22.816570
139 0 3 0.053000 18.476286 22.104385 22.389601
140 0 2 0.248100 19.444548 23.586163 23.728672
141 0 3 0.053000 20.205271 24.201864 24.232500
142 0 3 0.053000 18.513672 23.477753 23.755043
143 0 3 0.053000 19.772774 23.455128 23.310532
144 0 4 -1.000000 21.855274 24.518776 24.697273
145 0 1 -0.628400 25.937597 23.178261 23.601763
146 0 2 0.248100 27.016003 23.919315 24.365065
147 0 3 0.053000 27.378319 23.976616 24.592922
148 0 3 0.053000 26.678480 24.225082 24.808844
149 0 3 0.053000 28.008892 24.257587 24.412809
150 0 2 0.248100 25.765957 22.775028 23.480925
151 0 3 0.053000 25.332689 22.865934 23.866264
152 0 3 0.053000 26.714300 22.916183 23.505350
153 0 3 0.053000 25.095654 22.160511 22.951807
154 0 2 0.248100 24.851488 22.433746 22.840212
155 0 3 0.053000 24.540817 22.380327 22.600643
156 0 3 0.053000 23.855274 22.120621 22.816570
157 0 3 0.053000 25.144547 22.104385 22.389601
158 0 2 0.248100 26.112808 23.586163 23.728672
159 0 3 0.053000 26.873531 24.201864 24.232500
160 0 3 0.053000 25.181932 23.477753 23.755043
161 0 3 0.053000 26.441036 23.455128 23.310532
162 0 4 -1.000000 28.523537 24.518776 24.697273
163 0 1 -0.628400 32.605858 23.178261 23.601763
164 0 2 0.248100 33.684265 23.919315 24.365065
165 0 3 0.053000 34.046581 23.976616 24.592922
166 0 3 0.053000 33.346741 24.225082 24.808844
167 0 3 0.053000 34.677155 24.257587 24.412809
168 0 2 0.248100 32.434219 22.775028 23.480925
169 0 3 0.053000 32.000950 22.865934 23.866264
170 0 3 0.053000 33.382561 22.916183 23.505350
171 0 3 0.053000 31.763914 22.160511 22.951807
172 0 2 0.248100 31.519751 22.433746 22.840212
173 0 3 0.053000 31.209078 22.380327 22.600643
174 0 3 0.053000 30.523537 22.120621 22.816570
175 0 3 0.053000 31.812809 22.104385 22.389601
176 0 2 0.248100 32.781071 23.586163 23.728672
177 0 3 0.053000 33.541794 24.201864 24.232500
178 0 3 0.053000 31.850193 23.477753 23.755043
179 0 3 0.053000 33.109299 23.455128 23.310532
180 0 4 -1.000000 35.191795 24.518776 24.697273
181 0 1 -0.628400 39.274120 23.178261 23.601763
182 0 2 0.248100 40.352524 23.919315 24.365065
183 0 3 0.053000 40.714844 23.976616 24.592922
184 0 3 0.053000 40.014999 24.225082 24.808844
185 0 3 0.053000 41.345413 24.257587 24.412809
186 0 2 0.248100 39.102478 22.775028 23.480925
187 0 3 0.053000 38.669212 22.865934 23.866264
188 0 3 0.053000 40.050823 22.916183 23.505350
189 0 3 0.053000 38.432175 22.160511 22.951807
190 0 2 0.248100 38.188011 22.433746 22.840212
191 0 3 0.053000 37.877338 22.380327 22.600643
192 0 3 0.053000 37.191795 22.120621 22.816570
193 0 3 0.053000 38.481071 22.104385 22.389601
194 0 2 0.248100 39.449329 23.586163 23.728672
195 0 3 0.053000 40.210052 24.201864 24.232500
196 0 3 0.053000 38.518456 23.477753 23.755043
197 0 3 0.053000 39.777557 23.455128 23.310532
198 0 4 -1.000000 41.860058 24.518776 24.697273
199 0 1 -0.628400 45.942379 23.178261 23.601763
200 0 2 0.248100 47.020786 23.919315 24.365065
201 0 3 0.053000 47.383102 23.976616 24.592922
202 0 3 0.053000 46.683262 24.225082 24.808844
203 0 3 0.053000 48.013676 24.257587 24.412809
204 0 2 0.248100 45.770737 22.775028 23.480925
205 0 3 0.053000 45.337471 22.865934 23.866264
206 0 3 0.053000 46.719082 22.916183 23.505350
207 0 3 0.053000 45.100437 22.160511 22.951807
208 0 2 0.248100 44.856270 22.433746 22.840212
209 0 3 0.053000 44.545601 22.380327 22.600643
210 0 3 0.053000 43.860058 22.120621 22.816570
211 0 3 0.053000 45.149330 22.104385 22.389601
212 0 2 0.248100 46.117592 23.586163 23.728672
213 0 3 0.053000 46.878315 24.201864 24.232500
214 0 3 0.053000 45.186714 23.477753 23.755043
215 0 3 0.053000 46.445820 23.455128 23.310532
216 0 4 -1.000000 48.528320 24.518776 24.697273
217 0 1 -0.628400 12.601076 27.592651 23.601763
218 0 2 0.248100 13.679480 28.333706 24.365065
219 0 3 0.053000 14.041798 28.391006 24.592922
220 0 3 0.053000 13.341957 28.639473 24.808844
221 0 3 0.053000 14.672370 28.671980 24.412809
222 0 2 0.248100 12.429434 27.189419 23.480925
223 0 3 0.053000 11.996166 27.280327 23.866264
224 0 3 0.053000 13.377779 27.330574 23.505350
225 0 3 0.053000 11.759130 26.574902 22.951807
226 0 2 0.248100 11.514967 26.848137 22.840212
227 0 3 0.053000 11.204295 26.794720 22.600643
228 0 3 0.053000 10.518753 26.535011 22.816570
229 0 3 0.053000 11.808024 26.518776 22.389601
230 0 2 0.248100 12.776286 28.000553 23.728672
231 0 3 0.053000 13.537010 28.616257 24.232500
232 0 3 0.053000 11.845409 27.892145 23.755043
233 0 3 0.053000 13.104513 27.869518 23.310532
234 0 4 -1.000000 15.187014 28.933168 24.697273
235 0 1 -0.628400 19.269337 27.592651 23.601763
236 0 2 0.248100 20.347740 28.333706 24.365065
237 0 3 0.053000 20.710058 28.391006 24.592922
238 0 3 0.053000 20.010220 28.639473 24.808844
239 0 3 0.053000 21.340631 28.671980 24.412809
240 0 2 0.248100 19.097694 27.189419 23.480925
241 0 3 0.053000 18.664429 27.280327 23.866264
242 0 3 0.053000 20.046040 27.330574 23.505350
243 0 3 0.053000 18.427391 26.574902 22.951807
244 0 2 0.248100 18.183228 26.848137 22.840212
245 0 3 0.053000 17.872557 26.794720 22.600643
246 0 3 0.053000 17.187014 26.535011 22.816570
247 0 3 0.053000 18.476286 26.518776 22.389601
248 0 2 0.248100 19.444548 28.000553 23.728672
249 0 3 0.053000 20.205271 28.616257 24.232500
250 0 3 0.053000 18.513672 27.892145 23.755043
251 0 3 0.053000 19.772774 27.869518 23.310532
252 0 4 -1.000000 21.855274 28.933168 24.697273
253 0 1 -0.628400 25.937597 27.592651 23.601763
254 0 2 0.248100 27.016003 28.333706 24.365065
255 0 3 0.053000 27.378319 28.391006 24.592922
256 0 3 0.053000 26.678480 28.639473 24.808844
257 0 3 0.053000 28.008892 28.671980 24.412809
258 0 2 0.248100 25.765957 27.189419 23.480925
259 0 3 0.053000 25.332689 27.280327 23.866264
260 0 3 0.053000 26.714300 27.330574 23.505350
261 0 3 0.053000 25.095654 26.574902 22.951807
262 0 2 0.248100 24.851488 26.848137 22.840212
263 0 3 0.053000 24.540817 26.794720 22.600643
264 0 3 0.053000 23.855274 26.535011 22.816570
265 0 3 0.053000 25.144547 26.518776 22.389601
266 0 2 0.248100 26.112808 28.000553 23.728672
267 0 3 0.053000 26.873531 28.616257 24.232500
268 0 3 0.053000 25.181932 27.892145 23.755043
269 0 3 0.053000 26.441036 27.869518 23.310532
270 0 4 -1.000000 28.523537 28.933168 24.697273
271 0 1 -0.628400 32.605858 27.592651 23.601763
272 0 2 0.248100 33.684265 28.333706 24.365065
273 0 3 0.053000 34.046581 28.391006 24.592922
274 0 3 0.053000 33.346741 28.639473 24.808844
275 0 3 0.053000 34.677155 28.671980 24.412809
276 0 2 0.248100 32.434219 27.189419 23.480925
277 0 3 0.053000 32.000950 27.280327 23.866264
278 0 3 0.053000 33.382561 27.330574 23.505350
279 0 3 0.053000 31.763914 26.574902 22.951807
280 0 2 0.248100 31.519751 26.848137 22.840212
281 0 3 0.053000 31.209078 26.794720 22.600643
282 0 3 0.053000 30.523537 26.535011 22.816570
283 0 3 0.053000 31.812809 26.518776 22.389601
284 0 2 0.248100 32.781071 28.000553 23.728672
285 0 3 0.053000 33.541794 28.616257 24.232500
286 0 3 0.053000 31.850193 27.892145 23.755043
287 0 3 0.053000 33.109299 27.869518 23.310532
288 0 4 -1.000000 35.191795 28.933168 24.697273
289 0 1 -0.628400 39.274120 27.592651 23.601763
290 0 2 0.248100 40.352524 28.333706 24.365065
291 0 3 0.053000 40.714844 28.391006 24.592922
292 0 3 0.053000 40.014999 28.639473 24.808844
293 0 3 0.053000 41.345413 28.671980 24.412809
294 0 2 0.248100 39.102478 27.189419 23.480925
295 0 3 0.053000 38.669212 27.280327 23.866264
296 0 3 0.053000 40.050823 27.330574 23.505350
297 0 3 0.053000 38.432175 26.574902 22.951807
298 0 2 0.248100 38.188011 26.848137 22.840212
299 0 3 0.053000 37.877338 26.794720 22.600643
300 0 3 0.053000 37.191795 26.535011 22.816570
301 0 3 0.053000 38.481071 26.518776 22.389601
302 0 2 0.248100 39.449329 28.000553 23.728672
303 0 3 0.053000 40.210052 28.616257 24.232500
304 0 3 0.053000 38.518456 27.892145 23.755043
305 0 3 0.053000 39.777557 27.869518 23.310532
306 0 4 -1.000000 41.860058 28.933168 24.697273
307 0 1 -0.628400 45.942379 27.592651 23.601763
308 0 2 0.248100 47.020786 28.333706 24.365065
309 0 3 0.053000 47.383102 28.391006 24.592922
310 0 3 0.053000 46.683262 28.639473 24.808844
311 0 3 0.053000 48.013676 28.671980 24.412809
312 0 2 0.248100 45.770737 27.189419 23.480925
313 0 3 0.053000 45.337471 27.280327 23.866264
314 0 3 0.053000 46.719082 27.330574 23.505350
315 0 3 0.053000 45.100437 26.574902 22.951807
316 0 2 0.248100 44.856270 26.848137 22.840212
317 0 3 0.053000 44.545601 26.794720 22.600643
318 0 3 0.053000 43.860058 26.535011 22.816570
319 0 3 0.053000 45.149330 26.518776 22.389601
320 0 2 0.248100 46.117592 28.000553 23.728672
321 0 3 0.053000 46.878315 28.616257 24.232500
322 0 3 0.053000 45.186714 27.892145 23.755043
323 0 3 0.053000 46.445820 27.869518 23.310532
324 0 4 -1.000000 48.528320 28.933168 24.697273
325 0 1 -0.628400 12.601076 32.007042 23.601763
326 0 2 0.248100 13.679480 32.748100 24.365065
327 0 3 0.053000 14.041798 32.805397 24.592922
328 0 3 0.053000 13.341957 33.053864 24.808844
329 0 3 0.053000 14.672370 33.086372 24.412809
330 0 2 0.248100 12.429434 31.603811 23.480925
331 0 3 0.053000 11.996166 31.694717 23.866264
332 0 3 0.053000 13.377779 31.744967 23.505350
333 0 3 0.053000 11.759130 30.989294 22.951807
334 0 2 0.248100 11.514967 31.262529 22.840212
335 0 3 0.053000 11.204295 31.209110 22.600643
336 0 3 0.053000 10.518753 30.949404 22.816570
337 0 3 0.053000 11.808024 30.933168 22.389601
338 0 2 0.248100 12.776286 32.414944 23.728672
339 0 3 0.053000 13.537010 33.030647 24.232500
340 0 3 0.053000 11.845409 32.306538 23.755043
341 0 3 0.053000 13.104513 32.283909 23.310532
342 0 4 -1.000000 15.187014 33.347561 24.697273
343 0 1 -0.628400 19.269337 32.007042 23.601763
344 0 2 0.248100 20.347740 32.748100 24.365065
345 0 3 0.053000 20.710058 32.805397 24.592922
346 0 3 0.053000 20.010220 33.053864 24.808844
347 0 3 0.053000 21.340631 33.086372 24.412809
348 0 2 0.248100 19.097694 31.603811 23.480925
349 0 3 0.053000 18.664429 31.694717 23.866264
350 0 3 0.053000 20.046040 31.744967 23.505350
351 0 3 0.053000 18.427391 30.989294 22.951807
352 0 2 0.248100 18.183228 31.262529 22.840212
353 0 3 0.053000 17.872557 31.209110 22.600643
354 0 3 0.053000 17.187014 30.949404 22.816570
355 0 3 0.053000 18.476286 30.933168 22.389601
356 0 2 0.248100 19.444548 32.414944 23.728672
357 0 3 0.053000 20.205271 33.030647 24.232500
358 0 3 0.053000 18.513672 32.306538 23.755043
359 0 3 0.053000 19.772774 32.283909 23.310532
360 0 4 -1.000000 21.855274 33.347561 24.697273
361 0 1 -0.628400 25.937597 32.007042 23.601763
362 0 2 0.248100 27.016003 32.748100 24.365065
363 0 3 0.053000 27.378319 32.805397 24.592922
364 0 3 0.053000 26.678480 33.053864 24.808844
365 0 3 0.053000 28.008892 33.086372 24.412809
366 0 2 0.248100 25.765957 31.603811 23.480925
367 0 3 0.053000 25.332689 31.694717 23.866264
368 0 3 0.053000 26.714300 31.744967 23.505350
369 0 3 0.053000 25.095654 30.989294 22.951807
370 0 2 0.248100 24.851488 31.262529 22.840212
371 0 3 0.053000 24.540817 31.209110 22.600643
372 0 3 0.053000 23.855274 30.949404 22.816570
373 0 3 0.053000 25.144547 30.933168 22.389601
374 0 2 0.248100 26.112808 32.414944 23.728672
375 0 3 0.053000 26.873531 33.030647 24.232500
376 0 3 0.053000 25.181932 32.306538 23.755043
377 0 3 0.053000 26.441036 32.283909 23.310532
378 0 4 -1.000000 28.523537 33.347561 24.697273
379 0 1 -0.628400 32.605858 32.007042 23.601763
380 0 2 0.248100 33.684265 32.748100 24.365065
381 0 3 0.053000 34.046581 32.805397 24.592922
382 0 3 0.053000 33.346741 33.053864 24.808844
383 0 3 0.053000 34.677155 33.086372 24.412809
384 0 2 0.248100 32.434219 31.603811 23.480925
385 0 3 0.053000 32.000950 31.694717 23.866264
386 0 3 0.053000 33.382561 31.744967 23.505350
387 0 3 0.053000 31.763914 30.989294 22.951807
388 0 2 0.248100 31.519751 31.262529 22.840212
389 0 3 0.053000 31.209078 31.209110 22.600643
390 0 3 0.053000 30.523537 30.949404 22.816570
391 0 3 0.053000 31.812809 30.933168 22.389601
392 0 2 0.248100 32.781071 32.414944 23.728672
393 0 3 0.053000 33.541794 33.030647 24.232500
394 0 3 0.053000 31.850193 32.306538 23.755043
395 0 3 0.053000 33.109299 32.283909 23.310532
396 0 4 -1.000000 35.191795 33.347561 24.697273
397 0 1 -0.628400 39.274120 32.007042 23.601763
398 0 2 0.248100 40.352524 32.748100 24.365065
399 0 3 0.053000 40.714844 32.805397 24.592922
400 0 3 0.053000 40.014999 33.053864 24.808844
401 0 3 0.053000 41.345413 33.086372 24.412809
402 0 2 0.248100 39.102478 31.603811 23.480925
403 0 3 0.053000 38.669212 31.694717 23.866264
404 0 3 0.053000 40.050823 31.744967 23.505350
405 0 3 0.053000 38.432175 30.989294 22.951807
406 0 2 0.248100 38.188011 31.262529 22.840212
407 0 3 0.053000 37.877338 31.209110 22.600643
408 0 3 0.053000 37.191795 30.949404 22.816570
409 0 3 0.053000 38.481071 30.933168 22.389601
410 0 2 0.248100 39.449329 32.414944 23.728672
411 0 3 0.053000 40.210052 33.030647 24.232500
412 0 3 0.053000 38.518456 32.306538 23.755043
413 0 3 0.053000 39.777557 32.283909 23.310532
414 0 4 -1.000000 41.860058 33.347561 24.697273
415 0 1 -0.628400 45.942379 32.007042 23.601763
416 0 2 0.248100 47.020786 32.748100 24.365065
417 0 3 0.053000 47.383102 32.805397 24.592922
418 0 3 0.053000 46.683262 33.053864 24.808844
419 0 3 0.053000 48.013676 33.086372 24.412809
420 0 2 0.248100 45.770737 31.603811 23.480925
421 0 3 0.053000 45.337471 31.694717 23.866264
422 0 3 0.053000 46.719082 31.744967 23.505350
423 0 3 0.053000 45.100437 30.989294 22.951807
424 0 2 0.248100 44.856270 31.262529 22.840212
425 0 3 0.053000 44.545601 31.209110 22.600643
426 0 3 0.053000 43.860058 30.949404 22.816570
427 0 3 0.053000 45.149330 30.933168 22.389601
428 0 2 0.248100 46.117592 32.414944 23.728672
429 0 3 0.053000 46.878315 33.030647 24.232500
430 0 3 0.053000 45.186714 32.306538 23.755043
431 0 3 0.053000 46.445820 32.283909 23.310532
432 0 4 -1.000000 48.528320 33.347561 24.697273
433 0 1 -0.628400 12.601076 36.421436 23.601763
434 0 2 0.248100 13.679480 37.162491 24.365065
435 0 3 0.053000 14.041798 37.219791 24.592922
436 0 3 0.053000 13.341957 37.468258 24.808844
437 0 3 0.053000 14.672370 37.500763 24.412809
438 0 2 0.248100 12.429434 36.018204 23.480925
439 0 3 0.053000 11.996166 36.109108 23.866264
440 0 3 0.053000 13.377779 36.159359 23.505350
441 0 3 0.053000 11.759130 35.403687 22.951807
442 0 2 0.248100 11.514967 35.676922 22.840212
443 0 3 0.053000 11.204295 35.623505 22.600643
444 0 3 0.053000 10.518753 35.363796 22.816570
445 0 3 0.053000 11.808024 35.347561 22.389601
446 0 2 0.248100 12.776286 36.829338 23.728672
447 0 3 0.053000 13.537010 37.445038 24.232500
448 0 3 0.053000 11.845409 36.720932 23.755043
449 0 3 0.053000 13.104513 36.698303 23.310532
450 0 4 -1.000000 15.187014 37.761955 24.697273
451 0 1 -0.628400 19.269337 36.421436 23.601763
452 0 2 0.248100 20.347740 37.162491 24.365065
453 0 3 0.053000 20.710058 37.219791 24.592922
454 0 3 0.053000 20.010220 37.468258 24.808844
455 0 3 0.053000 21.340631 37.500763 24.412809
456 0 2 0.248100 19.097694 36.018204 23.480925
457 0 3 0.053000 18.664429 36.109108 23.866264
458 0 3 0.053000 20.046040 36.159359 23.505350
459 0 3 0.053000 18.427391 35.403687 22.951807
460 0 2 0.248100 18.183228 35.676922 22.840212
461 0 3 0.053000 17.872557 35.623505 22.600643
462 0 3 0.053000 17.187014 35.363796 22.816570
463 0 3 0.053000 18.476286 35.347561 22.389601
464 0 2 0.248100 19.444548 36.829338 23.728672
465 0 3 0.053000 20.205271 37.445038 24.232500
466 0 3 0.053000 18.513672 36.720932 23.755043
467 0 3 0.053000 19.772774 36.698303 23.310532
468 0 4 -1.000000 21.855274 37.761955 24.697273
469 0 1 -0.628400 25.937597 36.421436 23.601763
470 0 2 0.248100 27.016003 37.162491 24.365065
471 0 3 0.053000 27.378319 37.219791 24.592922
472 0 3 0.053000 26.678480 37.468258 24.808844
473 0 3 0.053000 28.008892 37.500763 24.412809
474 0 2 0.248100 25.765957 36.018204 23.480925
475 0 3 0.053000 25.332689 36.109108 23.866264
476 0 3 0.053000 26.714300 36.159359 23.505350
477 0 3 0.053000 25.095654 35.403687 22.951807
478 0 2 0.248100 24.851488 35.676922 22.840212
479 0 3 0.053000 24.540817 35.623505 22.600643
480 0 3 0.053000 23.855274 35.363796 22.816570
481 0 3 0.053000 25.144547 35.347561 22.389601
482 0 2 0.248100 26.112808 36.829338 23.728672
483 0 3 0.053000 26.873531 37.445038 24.232500
484 0 3 0.053000 25.181932 36.720932 23.755043
485 0 3 0.053000 26.441036 36.698303 23.310532
486 0 4 -1.000000 28.523537 37.761955 24.697273
487 0 1 -0.628400 32.605858 36.421436 23.601763
488 0 2 0.248100 33.684265 37.162491 24.365065
489 0 3 0.053000 34.046581 37.219791 24.592922
490 0 3 0.053000 33.346741 37.468258 24.808844
491 0 3 0.053000 34.677155 37.500763 24.412809
492 0 2 0.248100 32.434219 36.018204 23.480925
493 0 3 0.053000 32.000950 36.109108 23.866264
494 0 3 0.053000 33.382561 36.159359 23.505350
495 0 3 0.053000 31.763914 35.403687 22.951807
496 0 2 0.248100 31.519751 35.676922 22.840212
497 0 3 0.053000 31.209078 35.623505 22.600643
498 0 3 0.053000 30.523537 35.363796 22.816570
499 0 3 0.053000 31.812809 35.347561 22.389601
500 0 2 0.248100 32.781071 36.829338 23.728672
501 0 3 0.053000 33.541794 37.445038 24.232500
502 0 3 0.053000 31.850193 36.720932 23.755043
503 0 3 0.053000 33.109299 36.698303 23.310532
504 0 4 -1.000000 35.191795 37.761955 24.697273
505 0 1 -0.628400 39.274120 36.421436 23.601763
506 0 2 0.248100 40.352524 37.162491 24.365065
507 0 3 0.053000 40.714844 37.219791 24.592922
508 0 3 0.053000 40.014999 37.468258 24.808844
509 0 3 0.053000 41.345413 37.500763 24.412809
510 0 2 0.248100 39.102478 36.018204 23.480925
511 0 3 0.053000 38.669212 36.109108 23.866264
512 0 3 0.053000 40.050823 36.159359 23.505350
513 0 3 0.053000 38.432175 35.403687 22.951807
514 0 2 0.248100 38.188011 35.676922 22.840212
515 0 3 0.053000 37.877338 35.623505 22.600643
516 0 3 0.053000 37.191795 35.363796 22.816570
517 0 3 0.053000 38.481071 35.347561 22.389601
518 0 2 0.248100 39.449329 36.829338 23.728672
519 0 3 0.053000 40.210052 37.445038 24.232500
520 0 3 0.053000 38.518456 36.720932 23.755043
521 0 3 0.053000 39.777557 36.698303 23.310532
522 0 4 -1.000000 41.860058 37.761955 24.697273
523 0 1 -0.628400 45.942379 36.421436 23.601763
524 0 2 0.248100 47.020786 37.162491 24.365065
525 0 3 0.053000 47.383102 37.219791 24.592922
526 0 3 0.053000 46.683262 37.468258 24.808844
527 0 3 0.053000 48.013676 37.500763 24.412809
528 0 2 0.248100 45.770737 36.018204 23.480925
529 0 3 0.053000 45.337471 36.109108 23.866264
530 0 3 0.053000 46.719082 36.159359 23.505350
531 0 3 0.053000 45.100437 35.403687 22.951807
532 0 2 0.248100 44.856270 35.676922 22.840212
533 0 3 0.053000 44.545601 35.623505 22.600643
534 0 3 0.053000 43.860058 35.363796 22.816570
535 0 3 0.053000 45.149330 35.347561 22.389601
536 0 2 0.248100 46.117592 36.829338 23.728672
537 0 3 0.053000 46.878315 37.445038 24.232500
538 0 3 0.053000 45.186714 36.720932 23.755043
539 0 3 0.053000 46.445820 36.698303 23.310532
540 0 4 -1.000000 48.528320 37.761955 24.697273
541 0 1 -0.628400 12.601076 40.835831 23.601763
542 0 2 0.248100 13.679480 41.576881 24.365065
543 0 3 0.053000 14.041798 41.634186 24.592922
544 0 3 0.053000 13.341957 41.882652 24.808844
545 0 3 0.053000 14.672370 41.915154 24.412809
546 0 2 0.248100 12.429434 40.432594 23.480925
547 0 3 0.053000 11.996166 40.523502 23.866264
548 0 3 0.053000 13.377779 40.573753 23.505350
549 0 3 0.053000 11.759130 39.818077 22.951807
550 0 2 0.248100 11.514967 40.091316 22.840212
551 0 3 0.053000 11.204295 40.037895 22.600643
552 0 3 0.053000 10.518753 39.778191 22.816570
553 0 3 0.053000 11.808024 39.761955 22.389601
554 0 2 0.248100 12.776286 41.243729 23.728672
555 0 3 0.053000 13.537010 41.859436 24.232500
556 0 3 0.053000 11.845409 41.135323 23.755043
557 0 3 0.053000 13.104513 41.112694 23.310532
558 0 4 -1.000000 15.187014 42.176346 24.697273
559 0 1 -0.628400 19.269337 40.835831 23.601763
560 0 2 0.248100 20.347740 41.576881 24.365065
561 0 3 0.053000 20.710058 41.634186 24.592922
562 0 3 0.053000 20.010220 41.882652 24.808844
563 0 3 0.053000 21.340631 41.915154 24.412809
564 0 2 0.248100 19.097694 40.432594 23.480925
565 0 3 0.053000 18.664429 40.523502 23.866264
566 0 3 0.053000 20.046040 40.573753 23.505350
567 0 3 0.053000 18.427391 39.818077 22.951807
568 0 2 0.248100 18.183228 40.091316 22.840212
569 0 3 0.053000 17.872557 40.037895 22.600643
570 0 3 0.053000 17.187014 39.778191 22.816570
571 0 3 0.053000 18.476286 39.761955 22.389601
572 0 2 0.248100 19.444548 41.243729 23.728672
573 0 3 0.053000 20.205271 41.859436 24.232500
574 0 3 0.053000 18.513672 41.135323 23.755043
575 0 3 0.053000 19.772774 41.112694 23.310532
576 0 4 -1.000000 21.855274 42.176346 24.697273
577 0 1 -0.628400 25.937597 40.835831 23.601763
578 0 2 0.248100 27.016003 41.576881 24.365065
579 0 3 0.053000 27.378319 41.634186 24.592922
580 0 3 0.053000 26.678480 41.882652 24.808844
581 0 3 0.053000 28.008892 41.915154 24.412809
582 0 2 0.248100 25.765957 40.432594 23.480925
583 0 3 0.053000 25.332689 40.523502 23.866264
584 0 3 0.053000 26.714300 40.573753 23.505350
585 0 3 0.053000 25.095654 39.818077 22.951807
586 0 2 0.248100 24.851488 40.091316 22.840212
587 0 3 0.053000 24.540817 40.037895 22.600643
588 0 3 0.053000 23.855274 39.778191 22.816570
589 0 3 0.053000 25.144547 39.761955 22.389601
590 0 2 0.248100 26.112808 41.243729 23.728672
591 0 3 0.053000 26.873531 41.859436 24.232500
592 0 3 0.053000 25.181932 41.135323 23.755043
593 0 3 0.053000 26.441036 41.112694 23.310532
594 0 4 -1.000000 28.523537 42.176346 24.697273
595 0 1 -0.628400 32.605858 40.835831 23.601763
596 0 2 0.248100 33.684265 41.576881 24.365065
597 0 3 0.053000 34.046581 41.634186 24.592922
598 0 3 0.053000 33.346741 41.882652 24.808844
599 0 3 0.053000 34.677155 41.915154 24.412809
600 0 2 0.248100 32.434219 40.432594 23.480925
601 0 3 0.053000 32.000950 40.523502 23.866264
602 0 3 0.053000 33.382561 40.573753 23.505350
603 0 3 0.053000 31.763914 39.818077 22.951807
604 0 2 0.248100 31.519751 40.091316 22.840212
605 0 3 0.053000 31.209078 40.037895 22.600643
606 0 3 0.053000 30.523537 39.778191 22.816570
607 0 3 0.053000 31.812809 39.761955 22.389601
608 0 2 0.248100 32.781071 41.243729 23.728672
609 0 3 0.053000 33.541794 41.859436 24.232500
610 0 3 0.053000 31.850193 41.135323 23.755043
611 0 3 0.053000 33.109299 41.112694 23.310532
612 0 4 -1.000000 35.191795 42.176346 24.697273
613 0 1 -0.628400 39.274120 40.835831 23.601763
614 0 2 0.248100 40.352524 41.576881 24.365065
615 0 3 0.053000 40.714844 41.634186 24.592922
616 0 3 0.053000 40.014999 41.882652 24.808844
617 0 3 0.053000 41.345413 41.915154 24.412809
618 0 2 0.248100 39.102478 40.432594 23.480925
619 0 3 0.053000 38.669212 40.523502 23.866264
620 0 3 0.053000 40.050823 40.573753 23.505350
621 0 3 0.053000 38.432175 39.818077 22.951807
622 0 2 0.248100 38.188011 40.091316 22.840212
623 0 3 0.053000 37.877338 40.037895 22.600643
624 0 3 0.053000 37.191795 39.778191 22.816570
625 0 3 0.053000 38.481071 39.761955 22.389601
626 0 2 0.248100 39.449329 41.243729 23.728672
627 0 3 0.053000 40.210052 41.859436 24.232500
628 0 3 0.053000 38.518456 41.135323 23.755043
629 0 3 0.053000 39.777557 41.112694 23.310532
630 0 4 -1.000000 41.860058 42.176346 24.697273
631 0 1 -0.628400 45.942379 40.835831 23.601763