LAMMPS data file containing the original structures and the polarizable gold

9306 atoms
5528 bonds
3750 angles
4500 dihedrals
0 impropers

6 atom types
3 bond types
3 angle types
1 dihedral types

-3.000000 61.985802 xlo xhi
-3.000000 61.997501 ylo yhi
-3.000000 45.195114 zlo zhi

Masses

1 14.006700
2 12.011150
3 1.007970
4 79.908997
5 195.960000
6 1.000000

Atoms

1 0 1 -0.628400 15.894354 20.595032 23.311062
2 0 2 0.248100 16.972757 21.336086 24.074364
3 0 3 0.053000 17.335075 21.393387 24.302221
4 0 3 0.053000 16.635235 21.641853 24.518143
5 0 3 0.053000 17.965649 21.674358 24.122108
6 0 2 0.248100 15.722712 20.191799 23.190224
7 0 3 0.053000 15.289444 20.282705 23.575565
8 0 3 0.053000 16.671057 20.332954 23.214649
9 0 3 0.053000 15.052408 19.577282 22.661106
10 0 2 0.248100 14.808245 19.850517 22.549511
11 0 3 0.053000 14.497573 19.797098 22.309942
12 0 3 0.053000 13.812031 19.537392 22.525869
13 0 3 0.053000 15.101302 19.521156 22.098900
14 0 2 0.248100 16.069565 21.002934 23.437971
15 0 3 0.053000 16.830288 21.618637 23.941799
16 0 3 0.053000 15.138687 20.894526 23.464342
17 0 3 0.053000 16.397791 20.871899 23.019831
18 0 4 -1.000000 18.480291 21.935549 24.406572
19 0 1 -0.628400 22.562614 20.595032 23.311062
20 0 2 0.248100 23.641018 21.336086 24.074364
21 0 3 0.053000 24.003336 21.393387 24.302221
22 0 3 0.053000 23.303497 21.641853 24.518143
23 0 3 0.053000 24.633909 21.674358 24.122108
24 0 2 0.248100 22.390972 20.191799 23.190224
25 0 3 0.053000 21.957706 20.282705 23.575565
26 0 3 0.053000 23.339317 20.332954 23.214649
27 0 3 0.053000 21.720669 19.577282 22.661106
28 0 2 0.248100 21.476505 19.850517 22.549511
29 0 3 0.053000 21.165834 19.797098 22.309942
30 0 3 0.053000 20.480291 19.537392 22.525869
31 0 3 0.053000 21.769564 19.521156 22.098900
32 0 2 0.248100 22.737825 21.002934 23.437971
33 0 3 0.053000 23.498549 21.618637 23.941799
34 0 3 0.053000 21.806950 20.894526 23.464342
35 0 3 0.053000 23.066051 20.871899 23.019831
36 0 4 -1.000000 25.148552 21.935549 24.406572
37 0 1 -0.628400 29.230875 20.595032 23.311062
38 0 2 0.248100 30.309280 21.336086 24.074364
39 0 3 0.053000 30.671597 21.393387 24.302221
40 0 3 0.053000 29.971758 21.641853 24.518143
41 0 3 0.053000 31.302170 21.674358 24.122108
42 0 2 0.248100 29.059235 20.191799 23.190224
43 0 3 0.053000 28.625967 20.282705 23.575565
44 0 3 0.053000 30.007578 20.332954 23.214649
45 0 3 0.053000 28.388931 19.577282 22.661106
46 0 2 0.248100 28.144766 19.850517 22.549511
47 0 3 0.053000 27.834095 19.797098 22.309942
48 0 3 0.053000 27.148552 19.537392 22.525869
49 0 3 0.053000 28.437824 19.521156 22.098900
50 0 2 0.248100 29.406086 21.002934 23.437971
51 0 3 0.053000 30.166809 21.618637 23.941799
52 0 3 0.053000 28.475210 20.894526 23.464342
53 0 3 0.053000 29.734314 20.871899 23.019831
54 0 4 -1.000000 31.816814 21.935549 24.406572
55 0 1 -0.628400 35.899139 20.595032 23.311062
56 0 2 0.248100 36.977539 21.336086 24.074364
57 0 3 0.053000 37.339859 21.393387 24.302221
58 0 3 0.053000 36.640018 21.641853 24.518143
59 0 3 0.053000 37.970432 21.674358 24.122108
60 0 2 0.248100 35.727493 20.191799 23.190224
61 0 3 0.053000 35.294228 20.282705 23.575565
62 0 3 0.053000 36.675842 20.332954 23.214649
63 0 3 0.053000 35.057190 19.577282 22.661106
64 0 2 0.248100 34.813026 19.850517 22.549511
65 0 3 0.053000 34.502357 19.797098 22.309942
66 0 3 0.053000 33.816814 19.537392 22.525869
67 0 3 0.053000 35.106087 19.521156 22.098900
68 0 2 0.248100 36.074348 21.002934 23.437971
69 0 3 0.053000 36.835072 21.618637 23.941799
70 0 3 0.053000 35.143471 20.894526 23.464342
71 0 3 0.053000 36.402573 20.871899 23.019831
72 0 4 -1.000000 38.485077 21.935549 24.406572
73 0 1 -0.628400 42.567398 20.595032 23.311062
74 0 2 0.248100 43.645802 21.336086 24.074364
75 0 3 0.053000 44.008118 21.393387 24.302221
76 0 3 0.053000 43.308281 21.641853 24.518143
77 0 3 0.053000 44.638691 21.674358 24.122108
78 0 2 0.248100 42.395756 20.191799 23.190224
79 0 3 0.053000 41.962486 20.282705 23.575565
80 0 3 0.053000 43.344101 20.332954 23.214649
81 0 3 0.053000 41.725452 19.577282 22.661106
82 0 2 0.248100 41.481289 19.850517 22.549511
83 0 3 0.053000 41.170616 19.797098 22.309942
84 0 3 0.053000 40.485077 19.537392 22.525869
85 0 3 0.053000 41.774345 19.521156 22.098900
86 0 2 0.248100 42.742607 21.002934 23.437971
87 0 3 0.053000 43.503334 21.618637 23.941799
88 0 3 0.053000 41.811729 20.894526 23.464342
89 0 3 0.053000 43.070835 20.871899 23.019831
90 0 4 -1.000000 45.153336 21.935549 24.406572
91 0 1 -0.628400 15.894354 25.009422 23.311062
92 0 2 0.248100 16.972757 25.750479 24.074364
93 0 3 0.053000 17.335075 25.807777 24.302221
94 0 3 0.053000 16.635235 26.056244 24.518143
95 0 3 0.053000 17.965649 26.088751 24.122108
96 0 2 0.248100 15.722712 24.606192 23.190224
97 0 3 0.053000 15.289444 24.697098 23.575565
98 0 3 0.053000 16.671057 24.747345 23.214649
99 0 3 0.053000 15.052408 23.991673 22.661106
100 0 2 0.248100 14.808245 24.264910 22.549511
101 0 3 0.053000 14.497573 24.211491 22.309942
102 0 3 0.053000 13.812031 23.951784 22.525869
103 0 3 0.053000 15.101302 23.935549 22.098900
104 0 2 0.248100 16.069565 25.417324 23.437971
105 0 3 0.053000 16.830288 26.033028 23.941799
106 0 3 0.053000 15.138687 25.308918 23.464342
107 0 3 0.053000 16.397791 25.286289 23.019831
108 0 4 -1.000000 18.480291 26.349941 24.406572
109 0 1 -0.628400 22.562614 25.009422 23.311062
110 0 2 0.248100 23.641018 25.750479 24.074364
111 0 3 0.053000 24.003336 25.807777 24.302221
112 0 3 0.053000 23.303497 26.056244 24.518143
113 0 3 0.053000 24.633909 26.088751 24.122108
114 0 2 0.248100 22.390972 24.606192 23.190224
115 0 3 0.053000 21.957706 24.697098 23.575565
116 0 3 0.053000 23.339317 24.747345 23.214649
117 0 3 0.053000 21.720669 23.991673 22.661106
118 0 2 0.248100 21.476505 24.264910 22.549511
119 0 3 0.053000 21.165834 24.211491 22.309942
120 0 3 0.053000 20.480291 23.951784 22.525869
121 0 3 0.053000 21.769564 23.935549 22.098900
122 0 2 0.248100 22.737825 25.417324 23.437971
123 0 3 0.053000 23.498549 26.033028 23.941799
124 0 3 0.053000 21.806950 25.308918 23.464342
125 0 3 0.053000 23.066051 25.286289 23.019831
126 0 4 -1.000000 25.148552 26.349941 24.406572
127 0 1 -0.628400 29.230875 25.009422 23.311062
128 0 2 0.248100 30.309280 25.750479 24.074364
129 0 3 0.053000 30.671597 25.807777 24.302221
130 0 3 0.053000 29.971758 26.056244 24.518143
131 0 3 0.053000 31.302170 26.088751 24.122108
132 0 2 0.248100 29.059235 24.606192 23.190224
133 0 3 0.053000 28.625967 24.697098 23.575565
134 0 3 0.053000 30.007578 24.747345 23.214649
135 0 3 0.053000 28.388931 23.991673 22.661106
136 0 2 0.248100 28.144766 24.264910 22.549511
137 0 3 0.053000 27.834095 24.211491 22.309942
138 0 3 0.053000 27.148552 23.951784 22.525869
139 0 3 0.053000 28.437824 23.935549 22.098900
140 0 2 0.248100 29.406086 25.417324 23.437971
141 0 3 0.053000 30.166809 26.033028 23.941799
142 0 3 0.053000 28.475210 25.308918 23.464342
143 0 3 0.053000 29.734314 25.286289 23.019831
144 0 4 -1.000000 31.816814 26.349941 24.406572
145 0 1 -0.628400 35.899139 25.009422 23.311062
146 0 2 0.248100 36.977539 25.750479 24.074364
147 0 3 0.053000 37.339859 25.807777 24.302221
148 0 3 0.053000 36.640018 26.056244 24.518143
149 0 3 0.053000 37.970432 26.088751 24.122108
150 0 2 0.248100 35.727493 24.606192 23.190224
151 0 3 0.053000 35.294228 24.697098 23.575565
152 0 3 0.053000 36.675842 24.747345 23.214649
153 0 3 0.053000 35.057190 23.991673 22.661106
154 0 2 0.248100 34.813026 24.264910 22.549511
155 0 3 0.053000 34.502357 24.211491 22.309942
156 0 3 0.053000 33.816814 23.951784 22.525869
157 0 3 0.053000 35.106087 23.935549 22.098900
158 0 2 0.248100 36.074348 25.417324 23.437971
159 0 3 0.053000 36.835072 26.033028 23.941799
160 0 3 0.053000 35.143471 25.308918 23.464342
161 0 3 0.053000 36.402573 25.286289 23.019831
162 0 4 -1.000000 38.485077 26.349941 24.406572
163 0 1 -0.628400 42.567398 25.009422 23.311062
164 0 2 0.248100 43.645802 25.750479 24.074364
165 0 3 0.053000 44.008118 25.807777 24.302221
166 0 3 0.053000 43.308281 26.056244 24.518143
167 0 3 0.053000 44.638691 26.088751 24.122108
168 0 2 0.248100 42.395756 24.606192 23.190224
169 0 3 0.053000 41.962486 24.697098 23.575565
170 0 3 0.053000 43.344101 24.747345 23.214649
171 0 3 0.053000 41.725452 23.991673 22.661106
172 0 2 0.248100 41.481289 24.264910 22.549511
173 0 3 0.053000 41.170616 24.211491 22.309942
174 0 3 0.053000 40.485077 23.951784 22.525869
175 0 3 0.053000 41.774345 23.935549 22.098900
176 0 2 0.248100 42.742607 25.417324 23.437971
177 0 3 0.053000 43.503334 26.033028 23.941799
178 0 3 0.053000 41.811729 25.308918 23.464342
179 0 3 0.053000 43.070835 25.286289 23.019831
180 0 4 -1.000000 45.153336 26.349941 24.406572
181 0 1 -0.628400 15.894354 29.423815 23.311062
182 0 2 0.248100 16.972757 30.164871 24.074364
183 0 3 0.053000 17.335075 30.222170 24.302221
184 0 3 0.053000 16.635235 30.470636 24.518143
185 0 3 0.053000 17.965649 30.503143 24.122108
186 0 2 0.248100 15.722712 29.020584 23.190224
187 0 3 0.053000 15.289444 29.111490 23.575565
188 0 3 0.053000 16.671057 29.161739 23.214649
189 0 3 0.053000 15.052408 28.406065 22.661106
190 0 2 0.248100 14.808245 28.679302 22.549511
191 0 3 0.053000 14.497573 28.625881 22.309942
192 0 3 0.053000 13.812031 28.366177 22.525869
193 0 3 0.053000 15.101302 28.349941 22.098900
194 0 2 0.248100 16.069565 29.831717 23.437971
195 0 3 0.053000 16.830288 30.447420 23.941799
196 0 3 0.053000 15.138687 29.723309 23.464342
197 0 3 0.053000 16.397791 29.700682 23.019831
198 0 4 -1.000000 18.480291 30.764332 24.406572
199 0 1 -0.628400 22.562614 29.423815 23.311062
200 0 2 0.248100 23.641018 30.164871 24.074364
201 0 3 0.053000 24.003336 30.222170 24.302221
202 0 3 0.053000 23.303497 30.470636 24.518143
203 0 3 0.053000 24.633909 30.503143 24.122108
204 0 2 0.248100 22.390972 29.020584 23.190224
205 0 3 0.053000 21.957706 29.111490 23.575565
206 0 3 0.053000 23.339317 29.161739 23.214649
207 0 3 0.053000 21.720669 28.406065 22.661106
208 0 2 0.248100 21.476505 28.679302 22.549511
209 0 3 0.053000 21.165834 28.625881 22.309942
210 0 3 0.053000 20.480291 28.366177 22.525869
211 0 3 0.053000 21.769564 28.349941 22.098900
212 0 2 0.248100 22.737825 29.831717 23.437971
213 0 3 0.053000 23.498549 30.447420 23.941799
214 0 3 0.053000 21.806950 29.723309 23.464342
215 0 3 0.053000 23.066051 29.700682 23.019831
216 0 4 -1.000000 25.148552 30.764332 24.406572
217 0 1 -0.628400 29.230875 29.423815 23.311062
218 0 2 0.248100 30.309280 30.164871 24.074364
219 0 3 0.053000 30.671597 30.222170 24.302221
220 0 3 0.053000 29.971758 30.470636 24.518143
221 0 3 0.053000 31.302170 30.503143 24.122108
222 0 2 0.248100 29.059235 29.020584 23.190224
223 0 3 0.053000 28.625967 29.111490 23.575565
224 0 3 0.053000 30.007578 29.161739 23.214649
225 0 3 0.053000 28.388931 28.406065 22.661106
226 0 2 0.248100 28.144766 28.679302 22.549511
227 0 3 0.053000 27.834095 28.625881 22.309942
228 0 3 0.053000 27.148552 28.366177 22.525869
229 0 3 0.053000 28.437824 28.349941 22.098900
230 0 2 0.248100 29.406086 29.831717 23.437971
231 0 3 0.053000 30.166809 30.447420 23.941799
232 0 3 0.053000 28.475210 29.723309 23.464342
233 0 3 0.053000 29.734314 29.700682 23.019831
234 0 4 -1.000000 31.816814 30.764332 24.406572
235 0 1 -0.628400 35.899139 29.423815 23.311062
236 0 2 0.248100 36.977539 30.164871 24.074364
237 0 3 0.053000 37.339859 30.222170 24.302221
238 0 3 0.053000 36.640018 30.470636 24.518143
239 0 3 0.053000 37.970432 30.503143 24.122108
240 0 2 0.248100 35.727493 29.020584 23.190224
241 0 3 0.053000 35.294228 29.111490 23.575565
242 0 3 0.053000 36.675842 29.161739 23.214649
243 0 3 0.053000 35.057190 28.406065 22.661106
244 0 2 0.248100 34.813026 28.679302 22.549511
245 0 3 0.053000 34.502357 28.625881 22.309942
246 0 3 0.053000 33.816814 28.366177 22.525869
247 0 3 0.053000 35.106087 28.349941 22.098900
248 0 2 0.248100 36.074348 29.831717 23.437971
249 0 3 0.053000 36.835072 30.447420 23.941799
250 0 3 0.053000 35.143471 29.723309 23.464342
251 0 3 0.053000 36.402573 29.700682 23.019831
252 0 4 -1.000000 38.485077 30.764332 24.406572
253 0 1 -0.628400 42.567398 29.423815 23.311062
254 0 2 0.248100 43.645802 30.164871 24.074364
255 0 3 0.053000 44.008118 30.222170 24.302221
256 0 3 0.053000 43.308281 30.470636 24.518143
257 0 3 0.053000 44.638691 30.503143 24.122108
258 0 2 0.248100 42.395756 29.020584 23.190224
259 0 3 0.053000 41.962486 29.111490 23.575565
260 0 3 0.053000 43.344101 29.161739 23.214649
261 0 3 0.053000 41.725452 28.406065 22.661106
262 0 2 0.248100 41.481289 28.679302 22.549511
263 0 3 0.053000 41.170616 28.625881 22.309942
264 0 3 0.053000 40.485077 28.366177 22.525869
265 0 3 0.053000 41.774345 28.349941 22.098900
266 0 2 0.248100 42.742607 29.831717 23.437971
267 0 3 0.053000 43.503334 30.447420 23.941799
268 0 3 0.053000 41.811729 29.723309 23.464342
269 0 3 0.053000 43.070835 29.700682 23.019831
270 0 4 -1.000000 45.153336 30.764332 24.406572
271 0 1 -0.628400 15.894354 33.838207 23.311062
272 0 2 0.248100 16.972757 34.579262 24.074364
273 0 3 0.053000 17.335075 34.636562 24.302221
274 0 3 0.053000 16.635235 34.885029 24.518143
275 0 3 0.053000 17.965649 34.917534 24.122108
276 0 2 0.248100 15.722712 33.434975 23.190224
277 0 3 0.053000 15.289444 33.525879 23.575565
278 0 3 0.053000 16.671057 33.576130 23.214649
279 0 3 0.053000 15.052408 32.820457 22.661106
280 0 2 0.248100 14.808245 33.093693 22.549511
281 0 3 0.053000 14.497573 33.040276 22.309942
282 0 3 0.053000 13.812031 32.780567 22.525869
283 0 3 0.053000 15.101302 32.764332 22.098900
284 0 2 0.248100 16.069565 34.246109 23.437971
285 0 3 0.053000 16.830288 34.861813 23.941799
286 0 3 0.053000 15.138687 34.137699 23.464342
287 0 3 0.053000 16.397791 34.115074 23.019831
288 0 4 -1.000000 18.480291 35.178726 24.406572
289 0 1 -0.628400 22.562614 33.838207 23.311062
290 0 2 0.248100 23.641018 34.579262 24.074364
291 0 3 0.053000 24.003336 34.636562 24.302221
292 0 3 0.053000 23.303497 34.885029 24.518143
293 0 3 0.053000 24.633909 34.917534 24.122108
294 0 2 0.248100 22.390972 33.434975 23.190224
295 0 3 0.053000 21.957706 33.525879 23.575565
296 0 3 0.053000 23.339317 33.576130 23.214649
297 0 3 0.053000 21.720669 32.820457 22.661106
298 0 2 0.248100 21.476505 33.093693 22.549511
299 0 3 0.053000 21.165834 33.040276 22.309942
300 0 3 0.053000 20.480291 32.780567 22.525869
301 0 3 0.053000 21.769564 32.764332 22.098900
302 0 2 0.248100 22.737825 34.246109 23.437971
303 0 3 0.053000 23.498549 34.861813 23.941799
304 0 3 0.053000 21.806950 34.137699 23.464342
305 0 3 0.053000 23.066051 34.115074 23.019831
306 0 4 -1.000000 25.148552 35.178726 24.406572
307 0 1 -0.628400 29.230875 33.838207 23.311062
308 0 2 0.248100 30.309280 34.579262 24.074364
309 0 3 0.053000 30.671597 34.636562 24.302221
310 0 3 0.053000 29.971758 34.885029 24.518143
311 0 3 0.053000 31.302170 34.917534 24.122108
312 0 2 0.248100 29.059235 33.434975 23.190224
313 0 3 0.053000 28.625967 33.525879 23.575565
314 0 3 0.053000 30.007578 33.576130 23.214649
315 0 3 0.053000 28.388931 32.820457 22.661106
316 0 2 0.248100 28.144766 33.093693 22.549511
317 0 3 0.053000 27.834095 33.040276 22.309942
318 0 3 0.053000 27.148552 32.780567 22.525869
319 0 3 0.053000 28.437824 32.764332 22.098900
320 0 2 0.248100 29.406086 34.246109 23.437971
321 0 3 0.053000 30.166809 34.861813 23.941799
322 0 3 0.053000 28.475210 34.137699 23.464342
323 0 3 0.053000 29.734314 34.115074 23.019831
324 0 4 -1.000000 31.816814 35.178726 24.406572
325 0 1 -0.628400 35.899139 33.838207 23.311062
326 0 2 0.248100 36.977539 34.579262 24.074364
327 0 3 0.053000 37.339859 34.636562 24.302221
328 0 3 0.053000 36.640018 34.885029 24.518143
329 0 3 0.053000 37.970432 34.917534 24.122108
330 0 2 0.248100 35.727493 33.434975 23.190224
331 0 3 0.053000 35.294228 33.525879 23.575565
332 0 3 0.053000 36.675842 33.576130 23.214649
333 0 3 0.053000 35.057190 32.820457 22.661106
334 0 2 0.248100 34.813026 33.093693 22.549511
335 0 3 0.053000 34.502357 33.040276 22.309942
336 0 3 0.053000 33.816814 32.780567 22.525869
337 0 3 0.053000 35.106087 32.764332 22.098900
338 0 2 0.248100 36.074348 34.246109 23.437971
339 0 3 0.053000 36.835072 34.861813 23.941799
340 0 3 0.053000 35.143471 34.137699 23.464342
341 0 3 0.053000 36.402573 34.115074 23.019831
342 0 4 -1.000000 38.485077 35.178726 24.406572
343 0 1 -0.628400 42.567398 33.838207 23.311062
344 0 2 0.248100 43.645802 34.579262 24.074364
345 0 3 0.053000 44.008118 34.636562 24.302221
346 0 3 0.053000 43.308281 34.885029 24.518143
347 0 3 0.053000 44.638691 34.917534 24.122108
348 0 2 0.248100 42.395756 33.434975 23.190224
349 0 3 0.053000 41.962486 33.525879 23.575565
350 0 3 0.053000 43.344101 33.576130 23.214649
351 0 3 0.053000 41.725452 32.820457 22.661106
352 0 2 0.248100 41.481289 33.093693 22.549511
353 0 3 0.053000 41.170616 33.040276 22.309942
354 0 3 0.053000 40.485077 32.780567 22.525869
355 0 3 0.053000 41.774345 32.764332 22.098900
356 0 2 0.248100 42.742607 34.246109 23.437971
357 0 3 0.053000 43.503334 34.861813 23.941799
358 0 3 0.053000 41.811729 34.137699 23.464342
359 0 3 0.053000 43.070835 34.115074 23.019831
360 0 4 -1.000000 45.153336 35.178726 24.406572
361 0 1 -0.628400 15.894354 38.252602 23.311062
362 0 2 0.248100 16.972757 38.993652 24.074364
363 0 3 0.053000 17.335075 39.050957 24.302221
364 0 3 0.053000 16.635235 39.299423 24.518143
365 0 3 0.053000 17.965649 39.331924 24.122108
366 0 2 0.248100 15.722712 37.849365 23.190224
367 0 3 0.053000 15.289444 37.940273 23.575565
368 0 3 0.053000 16.671057 37.990524 23.214649
369 0 3 0.053000 15.052408 37.234848 22.661106
370 0 2 0.248100 14.808245 37.508087 22.549511
371 0 3 0.053000 14.497573 37.454666 22.309942
372 0 3 0.053000 13.812031 37.194962 22.525869
373 0 3 0.053000 15.101302 37.178726 22.098900
374 0 2 0.248100 16.069565 38.660500 23.437971
375 0 3 0.053000 16.830288 39.276203 23.941799
376 0 3 0.053000 15.138687 38.552094 23.464342
377 0 3 0.053000 16.397791 38.529465 23.019831
378 0 4 -1.000000 18.480291 39.593117 24.406572
379 0 1 -0.628400 22.562614 38.252602 23.311062
380 0 2 0.248100 23.641018 38.993652 24.074364
381 0 3 0.053000 24.003336 39.050957 24.302221
382 0 3 0.053000 23.303497 39.299423 24.518143
383 0 3 0.053000 24.633909 39.331924 24.122108
384 0 2 0.248100 22.390972 37.849365 23.190224
385 0 3 0.053000 21.957706 37.940273 23.575565
386 0 3 0.053000 23.339317 37.990524 23.214649
387 0 3 0.053000 21.720669 37.234848 22.661106
388 0 2 0.248100 21.476505 37.508087 22.549511
389 0 3 0.053000 21.165834 37.454666 22.309942
390 0 3 0.053000 20.480291 37.194962 22.525869
391 0 3 0.053000 21.769564 37.178726 22.098900
392 0 2 0.248100 22.737825 38.660500 23.437971
393 0 3 0.053000 23.498549 39.276203 23.941799
394 0 3 0.053000 21.806950 38.552094 23.464342
395 0 3 0.053000 23.066051 38.529465 23.019831
396 0 4 -1.000000 25.148552 39.593117 24.406572
397 0 1 -0.628400 29.230875 38.252602 23.311062
398 0 2 0.248100 30.309280 38.993652 24.074364
399 0 3 0.053000 30.671597 39.050957 24.302221
400 0 3 0.053000 29.971758 39.299423 24.518143
401 0 3 0.053000 31.302170 39.331924 24.122108
402 0 2 0.248100 29.059235 37.849365 23.190224
403 0 3 0.053000 28.625967 37.940273 23.575565
404 0 3 0.053000 30.007578 37.990524 23.214649
405 0 3 0.053000 28.388931 37.234848 22.661106
406 0 2 0.248100 28.144766 37.508087 22.549511
407 0 3 0.053000 27.834095 37.454666 22.309942
408 0 3 0.053000 27.148552 37.194962 22.525869
409 0 3 0.053000 28.437824 37.178726 22.098900
410 0 2 0.248100 29.406086 38.660500 23.437971
411 0 3 0.053000 30.166809 39.276203 23.941799
412 0 3 0.053000 28.475210 38.552094 23.464342
413 0 3 0.053000 29.734314 38.529465 23.019831
414 0 4 -1.000000 31.816814 39.593117 24.406572
415 0 1 -0.628400 35.899139 38.252602 23.311062
416 0 2 0.248100 36.977539 38.993652 24.074364
417 0 3 0.053000 37.339859 39.050957 24.302221
418 0 3 0.053000 36.640018 39.299423 24.518143
419 0 3 0.053000 37.970432 39.331924 24.122108
420 0 2 0.248100 35.727493 37.849365 23.190224
421 0 3 0.053000 35.294228 37.940273 23.575565
422 0 3 0.053000 36.675842 37.990524 23.214649
423 0 3 0.053000 35.057190 37.234848 22.661106
424 0 2 0.248100 34.813026 37.508087 22.549511
425 0 3 0.053000 34.502357 37.454666 22.309942
426 0 3 0.053000 33.816814 37.194962 22.525869
427 0 3 0.053000 35.106087 37.178726 22.098900
428 0 2 0.248100 36.074348 38.660500 23.437971
429 0 3 0.053000 36.835072 39.276203 23.941799
430 0 3 0.053000 35.143471 38.552094 23.464342
431 0 3 0.053000 36.402573 38.529465 23.019831
432 0 4 -1.000000 38.485077 39.593117 24.406572
433 0 1 -0.628400 42.567398 38.252602 23.311062
434 0 2 0.248100 43.645802 38.993652 24.074364
435 0 3 0.053000 44.008118 39.050957 24.302221
436 0 3 0.053000 43.308281 39.299423 24.518143
437 0 3 0.053000 44.638691 39.331924 24.122108
438 0 2 0.248100 42.395756 37.849365 23.190224
439 0 3 0.053000 41.962486 37.940273 23.575565
440 0 3 0.053000 43.344101 37.990524 23.214649
441 0 3 0.053000 41.725452 37.234848 22.661106
442 0 2 0.248100 41.481289 37.508087 22.549511
443 0 3 0.053000 41.170616 37.454666 22.309942
444 0 3 0.053000 40.485077 37.194962 22.525869
445 0 3 0.053000 41.774345 37.178726 22.098900
446 0 2 0.248100 42.742607 38.660500 23.437971
447 0 3 0.053000 43.503334 39.276203 23.941799
448 0 3 0.053000 41.811729 38.552094 23.464342
449 0 3 0.053000 43.070835 38.529465 23.019831
450 0 4 -1.000000 45.153336 39.593117 24.406572
451 0 1 -0.628400 15.894354 20.595032 27.730305
452 0 2 0.248100 16.972757 21.336086 28.493607
453 0 3 0.053000 17.335075 21.393387 28.721464
454 0 3 0.053000 16.635235 21.641853 28.937386
455 0 3 0.053000 17.965649 21.674358 28.541351
456 0 2 0.248100 15.722712 20.191799 27.609465
457 0 3 0.053000 15.289444 20.282705 27.994806
458 0 3 0.053000 16.671057 20.332954 27.633892
459 0 3 0.053000 15.052408 19.577282 27.080349
460 0 2 0.248100 14.808245 19.850517 26.968754
461 0 3 0.053000 14.497573 19.797098 26.729183
462 0 3 0.053000 13.812031 19.537392 26.945112
463 0 3 0.053000 15.101302 19.521156 26.518143
464 0 2 0.248100 16.069565 21.002934 27.857212
465 0 3 0.053000 16.830288 21.618637 28.361042
466 0 3 0.053000 15.138687 20.894526 27.883583
467 0 3 0.053000 16.397791 20.871899 27.439072
468 0 4 -1.000000 18.480291 21.935549 28.825815
469 0 1 -0.628400 22.562614 20.595032 27.730305
470 0 2 0.248100 23.641018 21.336086 28.493607
471 0 3 0.053000 24.003336 21.393387 28.721464
472 0 3 0.053000 23.303497 21.641853 28.937386
473 0 3 0.053000 24.633909 21.674358 28.541351
474 0 2 0.248100 22.390972 20.191799 27.609465
475 0 3 0.053000 21.957706 20.282705 27.994806
476 0 3 0.053000 23.339317 20.332954 27.633892
477 0 3 0.053000 21.720669 19.577282 27.080349
478 0 2 0.248100 21.476505 19.850517 26.968754
479 0 3 0.053000 21.165834 19.797098 26.729183
480 0 3 0.053000 20.480291 19.537392 26.945112
481 0 3 0.053000 21.769564 19.521156 26.518143
482 0 2 0.248100 22.737825 21.002934 27.857212
483 0 3 0.053000 23.498549 21.618637 28.361042
484 0 3 0.053000 21.806950 20.894526 27.883583
485 0 3 0.053000 23.066051 20.871899 27.439072
486 0 4 -1.000000 25.148552 21.935549 28.825815
487 0 1 -0.628400 29.230875 20.595032 27.730305
488 0 2 0.248100 30.309280 21.336086 28.493607
489 0 3 0.053000 30.671597 21.393387 28.721464
490 0 3 0.053000 29.971758 21.641853 28.937386
491 0 3 0.053000 31.302170 21.674358 28.541351
492 0 2 0.248100 29.059235 20.191799 27.609465
493 0 3 0.053000 28.625967 20.282705 27.994806
494 0 3 0.053000 30.007578 20.332954 27.633892
495 0 3 0.053000 28.388931 19.577282 27.080349
496 0 2 0.248100 28.144766 19.850517 26.968754
497 0 3 0.053000 27.834095 19.797098 26.729183
498 0 3 0.053000 27.148552 19.537392 26.945112
499 0 3 0.053000 28.437824 19.521156 26.518143
500 0 2 0.248100 29.406086 21.002934 27.857212
501 0 3 0.053000 30.166809 21.618637 28.361042
502 0 3 0.053000 28.475210 20.894526 27.883583
503 0 3 0.053000 29.734314 20.871899 27.439072
504 0 4 -1.000000 31.816814 21.935549 28.825815
505 0 1 -0.628400 35.899139 20.595032 27.730305
506 0 2 0.248100 36.977539 21.336086 28.493607
507 0 3 0.053000 37.339859 21.393387 28.721464
508 0 3 0.053000 36.640018 21.641853 28.937386
509 0 3 0.053000 37.970432 21.674358 28.541351
510 0 2 0.248100 35.727493 20.191799 27.609465
511 0 3 0.053000 35.294228 20.282705 27.994806
512 0 3 0.053000 36.675842 20.332954 27.633892
513 0 3 0.053000 35.057190 19.577282 27.080349
514 0 2 0.248100 34.813026 19.850517 26.968754
515 0 3 0.053000 34.502357 19.797098 26.729183
516 0 3 0.053000 33.816814 19.537392 26.945112
517 0 3 0.053000 35.106087 19.521156 26.518143
518 0 2 0.248100 36.074348 21.002934 27.857212
519 0 3 0.053000 36.835072 21.618637 28.361042
520 0 3 0.053000 35.143471 20.894526 27.883583
521 0 3 0.053000 36.402573 20.871899 27.439072
522 0 4 -1.000000 38.485077 21.935549 28.825815
523 0 1 -0.628400 42.567398 20.595032 27.730305
524 0 2 0.248100 43.645802 21.336086 28.493607
525 0 3 0.053000 44.008118 21.393387 28.721464
526 0 3 0.053000 43.308281 21.641853 28.937386
527 0 3 0.053000 44.638691 21.674358 28.541351
528 0 2 0.248100 42.395756 20.191799 27.609465
529 0 3 0.053000 41.962486 20.282705 27.994806
530 0 3 0.053000 43.344101 20.332954 27.633892
531 0 3 0.053000 41.725452 19.577282 27.080349
532 0 2 0.248100 41.481289 19.850517 26.968754
533 0 3 0.053000 41.170616 19.797098 26.729183
534 0 3 0.053000 40.485077 19.537392 26.945112
535 0 3 0.053000 41.774345 19.521156 26.518143
536 0 2 0.248100 42.742607 21.002934 27.857212
537 0 3 0.053000 43.503334 21.618637 28.361042
538 0 3 0.053000 41.811729 20.894526 27.883583
539 0 3 0.053000 43.070835 20.871899 27.439072
540 0 4 -1.000000 45.153336 21.935549 28.825815
541 0 1 -0.628400 15.894354 25.009422 27.730305
542 0 2 0.248100 16.972757 25.750479 28.493607
543 0 3 0.053000 17.335075 25.807777 28.721464
544 0 3 0.053000 16.635235 26.056244 28.937386
545 0 3 0.053000 17.965649 26.088751 28.541351
546 0 2 0.248100 15.722712 24.606192 27.609465
547 0 3 0.053000 15.289444 24.697098 27.994806
548 0 3 0.053000 16.671057 24.747345 27.633892
549 0 3 0.053000 15.052408 23.991673 27.080349
550 0 2 0.248100 14.808245 24.264910 26.968754
551 0 3 0.053000 14.497573 24.211491 26.729183
552 0 3 0.053000 13.812031 23.951784 26.945112
553 0 3 0.053000 15.101302 23.935549 26.518143
554 0 2 0.248100 16.069565 25.417324 27.857212
555 0 3 0.053000 16.830288 26.033028 28.361042
556 0 3 0.053000 15.138687 25.308918 27.883583
557 0 3 0.053000 16.397791 25.286289 27.439072
558 0 4 -1.000000 18.480291 26.349941 28.825815
559 0 1 -0.628400 22.562614 25.009422 27.730305
560 0 2 0.248100 23.641018 25.750479 28.493607
561 0 3 0.053000 24.003336 25.807777 28.721464
562 0 3 0.053000 23.303497 26.056244 28.937386
563 0 3 0.053000 24.633909 26.088751 28.541351
564 0 2 0.248100 22.390972 24.606192 27.609465
565 0 3 0.053000 21.957706 24.697098 27.994806
566 0 3 0.053000 23.339317 24.747345 27.633892
567 0 3 0.053000 21.720669 23.991673 27.080349
568 0 2 0.248100 21.476505 24.264910 26.968754
569 0 3 0.053000 21.165834 24.211491 26.729183
570 0 3 0.053000 20.480291 23.951784 26.945112
571 0 3 0.053000 21.769564 23.935549 26.518143
572 0 2 0.248100 22.737825 25.417324 27.857212
573 0 3 0.053000 23.498549 26.033028 28.361042
574 0 3 0.053000 21.806950 25.308918 27.883583
575 0 3 0.053000 23.066051 25.286289 27.439072
576 0 4 -1.000000 25.148552 26.349941 28.825815
577 0 1 -0.628400 29.230875 25.009422 27.730305
578 0 2 0.248100 30.309280 25.750479 28.493607
579 0 3 0.053000 30.671597 25.807777 28.721464
580 0 3 0.053000 29.971758 26.056244 28.937386
581 0 3 0.053000 31.302170 26.088751 28.541351
582 0 2 0.248100 29.059235 24.606192 27.609465
583 0 3 0.053000 28.625967 24.697098 27.994806
584 0 3 0.053000 30.007578 24.747345 27.633892
585 0 3 0.053000 28.388931 23.991673 27.080349
586 0 2 0.248100 28.144766 24.264910 26.968754
587 0 3 0.053000 27.834095 24.211491 26.729183
588 0 3 0.053000 27.148552 23.951784 26.945112
589 0 3 0.053000 28.437824 23.935549 26.518143
590 0 2 0.248100 29.406086 25.417324 27.857212
591 0 3 0.053000 30.166809 26.033028 28.361042
592 0 3 0.053000 28.475210 25.308918 27.883583
593 0 3 0.053000 29.734314 25.286289 27.439072
594 0 4 -1.000000 31.816814 26.349941 28.825815
595 0 1 -0.628400 35.899139 25.009422 27.730305
596 0 2 0.248100 36.977539 25.750479 28.493607
597 0 3 0.053000 37.339859 25.807777 28.721464
598 0 3 0.053000 36.640018 26.056244 28.937386
599 0 3 0.053000 37.970432 26.088751 28.541351
600 0 2 0.248100 35.727493 24.606192 27.609465
601 0 3 0.053000 35.294228 24.697098 27.994806
602 0 3 0.053000 36.675842 24.747345 27.633892
603 0 3 0.053000 35.057190 23.991673 27.080349
604 0 2 0.248100 34.813026 24.264910 26.968754
605 0 3 0.053000 34.502357 24.211491 26.729183
606 0 3 0.053000 33.816814 23.951784 26.945112
607 0 3 0.053000 35.106087 23.935549 26.518143
608 0 2 0.248100 36.074348 25.417324 27.857212
609 0 3 0.053000 36.835072 26.033028 28.361042
610 0 3 0.053000 35.143471 25.308918 27.883583
611 0 3 0.053000 36.402573 25.286289 27.439072
612 0 4 -1.000000 38.485077 26.349941 28.825815
613 0 1 -0.628400 42.567398 25.009422 27.730305
614 0 2 0.248100 43.645802 25.750479 28.493607
615 0 3 0.053000 44.008118 25.807777 28.721464
616 0 3 0.053000 43.308281 26.056244 28.937386
617 0 3 0.053000 44.638691 26.088751 28.541351
618 0 2 0.248100 42.395756 24.606192 27.609465
619 0 3 0.053000 41.962486 24.697098 27.994806
620 0 3 0.053000 43.344101 24.747345 27.633892
621 0 3 0.053000 41.725452 23.991673 27.080349
622 0 2 0.248100 41.481289 24.264910 26.968754
623 0 3 0.053000 41.170616 24.211491 26.729183
624 0 3 0.053000 40.485077 23.951784 26.945112
625 0 3 0.053000 41.774345 23.935549 26.518143
626 0 2 0.248100 42.742607 25.417324 27.857212
627 0 3 0.053000 43.503334 26.033028 28.361042
628 0 3 0.053000 41.811729 25.308918 27.883583
629 0 3 0.053000 43.070835 25.286289 27.439072
630 0 4 -1.000000 45.153336 26.349941 28.825815
631 0 1 -0.628400 15.894354 29.423815 27.730305