LAMMPS data file containing the original structures and the polarizable gold

9000 atoms
5550 bonds
4500 angles
5400 dihedrals
0 impropers

6 atom types
3 bond types
3 angle types
1 dihedral types

-3.000000 62.014999 xlo xhi
-3.000000 62.014999 ylo yhi
-3.000000 43.306213 zlo zhi

Masses

1 14.006700
2 12.011150
3 1.007970
4 79.908997
5 195.960000
6 1.000000

Atoms

1 0 1 -0.628400 12.693802 18.838211 21.422163
2 0 2 0.248100 13.772205 19.579266 22.185465
3 0 3 0.053000 14.134523 19.636566 22.413322
4 0 3 0.053000 13.434683 19.885033 22.629244
5 0 3 0.053000 14.765096 19.917538 22.233210
6 0 2 0.248100 12.522160 18.434978 21.301325
7 0 3 0.053000 12.088892 18.525885 21.686665
8 0 3 0.053000 13.470505 18.576134 21.325750
9 0 3 0.053000 11.851856 17.820461 20.772207
10 0 2 0.248100 11.607693 18.093697 20.660612
11 0 3 0.053000 11.297021 18.040277 20.421043
12 0 3 0.053000 10.611479 17.780571 20.636971
13 0 3 0.053000 11.900750 17.764336 20.210001
14 0 2 0.248100 12.869012 19.246113 21.549072
15 0 3 0.053000 13.629736 19.861816 22.052900
16 0 3 0.053000 11.938135 19.137705 21.575443
17 0 3 0.053000 13.197239 19.115078 21.130932
18 0 4 -1.000000 15.279739 20.178728 22.517673
19 0 1 -0.628400 19.362062 18.838211 21.422163
20 0 2 0.248100 20.440468 19.579266 22.185465
21 0 3 0.053000 20.802784 19.636566 22.413322
22 0 3 0.053000 20.102943 19.885033 22.629244
23 0 3 0.053000 21.433357 19.917538 22.233210
24 0 2 0.248100 19.190420 18.434978 21.301325
25 0 3 0.053000 18.757153 18.525885 21.686665
26 0 3 0.053000 20.138765 18.576134 21.325750
27 0 3 0.053000 18.520119 17.820461 20.772207
28 0 2 0.248100 18.275953 18.093697 20.660612
29 0 3 0.053000 17.965282 18.040277 20.421043
30 0 3 0.053000 17.279739 17.780571 20.636971
31 0 3 0.053000 18.569012 17.764336 20.210001
32 0 2 0.248100 19.537273 19.246113 21.549072
33 0 3 0.053000 20.297997 19.861816 22.052900
34 0 3 0.053000 18.606396 19.137705 21.575443
35 0 3 0.053000 19.865501 19.115078 21.130932
36 0 4 -1.000000 21.948002 20.178728 22.517673
37 0 1 -0.628400 26.030323 18.838211 21.422163
38 0 2 0.248100 27.108728 19.579266 22.185465
39 0 3 0.053000 27.471045 19.636566 22.413322
40 0 3 0.053000 26.771206 19.885033 22.629244
41 0 3 0.053000 28.101618 19.917538 22.233210
42 0 2 0.248100 25.858681 18.434978 21.301325
43 0 3 0.053000 25.425415 18.525885 21.686665
44 0 3 0.053000 26.807026 18.576134 21.325750
45 0 3 0.053000 25.188379 17.820461 20.772207
46 0 2 0.248100 24.944214 18.093697 20.660612
47 0 3 0.053000 24.633543 18.040277 20.421043
48 0 3 0.053000 23.948002 17.780571 20.636971
49 0 3 0.053000 25.237272 17.764336 20.210001
50 0 2 0.248100 26.205534 19.246113 21.549072
51 0 3 0.053000 26.966257 19.861816 22.052900
52 0 3 0.053000 25.274658 19.137705 21.575443
53 0 3 0.053000 26.533762 19.115078 21.130932
54 0 4 -1.000000 28.616262 20.178728 22.517673
55 0 1 -0.628400 32.698586 18.838211 21.422163
56 0 2 0.248100 33.776989 19.579266 22.185465
57 0 3 0.053000 34.139305 19.636566 22.413322
58 0 3 0.053000 33.439468 19.885033 22.629244
59 0 3 0.053000 34.769882 19.917538 22.233210
60 0 2 0.248100 32.526943 18.434978 21.301325
61 0 3 0.053000 32.093674 18.525885 21.686665
62 0 3 0.053000 33.475288 18.576134 21.325750
63 0 3 0.053000 31.856640 17.820461 20.772207
64 0 2 0.248100 31.612476 18.093697 20.660612
65 0 3 0.053000 31.301804 18.040277 20.421043
66 0 3 0.053000 30.616262 17.780571 20.636971
67 0 3 0.053000 31.905535 17.764336 20.210001
68 0 2 0.248100 32.873795 19.246113 21.549072
69 0 3 0.053000 33.634521 19.861816 22.052900
70 0 3 0.053000 31.942919 19.137705 21.575443
71 0 3 0.053000 33.202023 19.115078 21.130932
72 0 4 -1.000000 35.284523 20.178728 22.517673
73 0 1 -0.628400 39.366844 18.838211 21.422163
74 0 2 0.248100 40.445251 19.579266 22.185465
75 0 3 0.053000 40.807568 19.636566 22.413322
76 0 3 0.053000 40.107727 19.885033 22.629244
77 0 3 0.053000 41.438141 19.917538 22.233210
78 0 2 0.248100 39.195206 18.434978 21.301325
79 0 3 0.053000 38.761936 18.525885 21.686665
80 0 3 0.053000 40.143547 18.576134 21.325750
81 0 3 0.053000 38.524902 17.820461 20.772207
82 0 2 0.248100 38.280739 18.093697 20.660612
83 0 3 0.053000 37.970062 18.040277 20.421043
84 0 3 0.053000 37.284523 17.780571 20.636971
85 0 3 0.053000 38.573795 17.764336 20.210001
86 0 2 0.248100 39.542053 19.246113 21.549072
87 0 3 0.053000 40.302780 19.861816 22.052900
88 0 3 0.053000 38.611179 19.137705 21.575443
89 0 3 0.053000 39.870285 19.115078 21.130932
90 0 4 -1.000000 41.952782 20.178728 22.517673
91 0 1 -0.628400 46.035103 18.838211 21.422163
92 0 2 0.248100 47.113510 19.579266 22.185465
93 0 3 0.053000 47.475830 19.636566 22.413322
94 0 3 0.053000 46.775986 19.885033 22.629244
95 0 3 0.053000 48.106400 19.917538 22.233210
96 0 2 0.248100 45.863464 18.434978 21.301325
97 0 3 0.053000 45.430199 18.525885 21.686665
98 0 3 0.053000 46.811806 18.576134 21.325750
99 0 3 0.053000 45.193161 17.820461 20.772207
100 0 2 0.248100 44.948997 18.093697 20.660612
101 0 3 0.053000 44.638329 18.040277 20.421043
102 0 3 0.053000 43.952782 17.780571 20.636971
103 0 3 0.053000 45.242058 17.764336 20.210001
104 0 2 0.248100 46.210320 19.246113 21.549072
105 0 3 0.053000 46.971039 19.861816 22.052900
106 0 3 0.053000 45.279442 19.137705 21.575443
107 0 3 0.053000 46.538544 19.115078 21.130932
108 0 4 -1.000000 48.621048 20.178728 22.517673
109 0 1 -0.628400 12.693802 23.252602 21.422163
110 0 2 0.248100 13.772205 23.993658 22.185465
111 0 3 0.053000 14.134523 24.050957 22.413322
112 0 3 0.053000 13.434683 24.299423 22.629244
113 0 3 0.053000 14.765096 24.331930 22.233210
114 0 2 0.248100 12.522160 22.849371 21.301325
115 0 3 0.053000 12.088892 22.940277 21.686665
116 0 3 0.053000 13.470505 22.990524 21.325750
117 0 3 0.053000 11.851856 22.234852 20.772207
118 0 2 0.248100 11.607693 22.508089 20.660612
119 0 3 0.053000 11.297021 22.454670 20.421043
120 0 3 0.053000 10.611479 22.194963 20.636971
121 0 3 0.053000 11.900750 22.178728 20.210001
122 0 2 0.248100 12.869012 23.660503 21.549072
123 0 3 0.053000 13.629736 24.276207 22.052900
124 0 3 0.053000 11.938135 23.552097 21.575443
125 0 3 0.053000 13.197239 23.529469 21.130932
126 0 4 -1.000000 15.279739 24.593121 22.517673
127 0 1 -0.628400 19.362062 23.252602 21.422163
128 0 2 0.248100 20.440468 23.993658 22.185465
129 0 3 0.053000 20.802784 24.050957 22.413322
130 0 3 0.053000 20.102943 24.299423 22.629244
131 0 3 0.053000 21.433357 24.331930 22.233210
132 0 2 0.248100 19.190420 22.849371 21.301325
133 0 3 0.053000 18.757153 22.940277 21.686665
134 0 3 0.053000 20.138765 22.990524 21.325750
135 0 3 0.053000 18.520119 22.234852 20.772207
136 0 2 0.248100 18.275953 22.508089 20.660612
137 0 3 0.053000 17.965282 22.454670 20.421043
138 0 3 0.053000 17.279739 22.194963 20.636971
139 0 3 0.053000 18.569012 22.178728 20.210001
140 0 2 0.248100 19.537273 23.660503 21.549072
141 0 3 0.053000 20.297997 24.276207 22.052900
142 0 3 0.053000 18.606396 23.552097 21.575443
143 0 3 0.053000 19.865501 23.529469 21.130932
144 0 4 -1.000000 21.948002 24.593121 22.517673
145 0 1 -0.628400 26.030323 23.252602 21.422163
146 0 2 0.248100 27.108728 23.993658 22.185465
147 0 3 0.053000 27.471045 24.050957 22.413322
148 0 3 0.053000 26.771206 24.299423 22.629244
149 0 3 0.053000 28.101618 24.331930 22.233210
150 0 2 0.248100 25.858681 22.849371 21.301325
151 0 3 0.053000 25.425415 22.940277 21.686665
152 0 3 0.053000 26.807026 22.990524 21.325750
153 0 3 0.053000 25.188379 22.234852 20.772207
154 0 2 0.248100 24.944214 22.508089 20.660612
155 0 3 0.053000 24.633543 22.454670 20.421043
156 0 3 0.053000 23.948002 22.194963 20.636971
157 0 3 0.053000 25.237272 22.178728 20.210001
158 0 2 0.248100 26.205534 23.660503 21.549072
159 0 3 0.053000 26.966257 24.276207 22.052900
160 0 3 0.053000 25.274658 23.552097 21.575443
161 0 3 0.053000 26.533762 23.529469 21.130932
162 0 4 -1.000000 28.616262 24.593121 22.517673
163 0 1 -0.628400 32.698586 23.252602 21.422163
164 0 2 0.248100 33.776989 23.993658 22.185465
165 0 3 0.053000 34.139305 24.050957 22.413322
166 0 3 0.053000 33.439468 24.299423 22.629244
167 0 3 0.053000 34.769882 24.331930 22.233210
168 0 2 0.248100 32.526943 22.849371 21.301325
169 0 3 0.053000 32.093674 22.940277 21.686665
170 0 3 0.053000 33.475288 22.990524 21.325750
171 0 3 0.053000 31.856640 22.234852 20.772207
172 0 2 0.248100 31.612476 22.508089 20.660612
173 0 3 0.053000 31.301804 22.454670 20.421043
174 0 3 0.053000 30.616262 22.194963 20.636971
175 0 3 0.053000 31.905535 22.178728 20.210001
176 0 2 0.248100 32.873795 23.660503 21.549072
177 0 3 0.053000 33.634521 24.276207 22.052900
178 0 3 0.053000 31.942919 23.552097 21.575443
179 0 3 0.053000 33.202023 23.529469 21.130932
180 0 4 -1.000000 35.284523 24.593121 22.517673
181 0 1 -0.628400 39.366844 23.252602 21.422163
182 0 2 0.248100 40.445251 23.993658 22.185465
183 0 3 0.053000 40.807568 24.050957 22.413322
184 0 3 0.053000 40.107727 24.299423 22.629244
185 0 3 0.053000 41.438141 24.331930 22.233210
186 0 2 0.248100 39.195206 22.849371 21.301325
187 0 3 0.053000 38.761936 22.940277 21.686665
188 0 3 0.053000 40.143547 22.990524 21.325750
189 0 3 0.053000 38.524902 22.234852 20.772207
190 0 2 0.248100 38.280739 22.508089 20.660612
191 0 3 0.053000 37.970062 22.454670 20.421043
192 0 3 0.053000 37.284523 22.194963 20.636971
193 0 3 0.053000 38.573795 22.178728 20.210001
194 0 2 0.248100 39.542053 23.660503 21.549072
195 0 3 0.053000 40.302780 24.276207 22.052900
196 0 3 0.053000 38.611179 23.552097 21.575443
197 0 3 0.053000 39.870285 23.529469 21.130932
198 0 4 -1.000000 41.952782 24.593121 22.517673
199 0 1 -0.628400 46.035103 23.252602 21.422163
200 0 2 0.248100 47.113510 23.993658 22.185465
201 0 3 0.053000 47.475830 24.050957 22.413322
202 0 3 0.053000 46.775986 24.299423 22.629244
203 0 3 0.053000 48.106400 24.331930 22.233210
204 0 2 0.248100 45.863464 22.849371 21.301325
205 0 3 0.053000 45.430199 22.940277 21.686665
206 0 3 0.053000 46.811806 22.990524 21.325750
207 0 3 0.053000 45.193161 22.234852 20.772207
208 0 2 0.248100 44.948997 22.508089 20.660612
209 0 3 0.053000 44.638329 22.454670 20.421043
210 0 3 0.053000 43.952782 22.194963 20.636971
211 0 3 0.053000 45.242058 22.178728 20.210001
212 0 2 0.248100 46.210320 23.660503 21.549072
213 0 3 0.053000 46.971039 24.276207 22.052900
214 0 3 0.053000 45.279442 23.552097 21.575443
215 0 3 0.053000 46.538544 23.529469 21.130932
216 0 4 -1.000000 48.621048 24.593121 22.517673
217 0 1 -0.628400 12.693802 27.666994 21.422163
218 0 2 0.248100 13.772205 28.408051 22.185465
219 0 3 0.053000 14.134523 28.465349 22.413322
220 0 3 0.053000 13.434683 28.713816 22.629244
221 0 3 0.053000 14.765096 28.746323 22.233210
222 0 2 0.248100 12.522160 27.263763 21.301325
223 0 3 0.053000 12.088892 27.354670 21.686665
224 0 3 0.053000 13.470505 27.404919 21.325750
225 0 3 0.053000 11.851856 26.649244 20.772207
226 0 2 0.248100 11.607693 26.922482 20.660612
227 0 3 0.053000 11.297021 26.869061 20.421043
228 0 3 0.053000 10.611479 26.609356 20.636971
229 0 3 0.053000 11.900750 26.593121 20.210001
230 0 2 0.248100 12.869012 28.074896 21.549072
231 0 3 0.053000 13.629736 28.690599 22.052900
232 0 3 0.053000 11.938135 27.966488 21.575443
233 0 3 0.053000 13.197239 27.943861 21.130932
234 0 4 -1.000000 15.279739 29.007511 22.517673
235 0 1 -0.628400 19.362062 27.666994 21.422163
236 0 2 0.248100 20.440468 28.408051 22.185465
237 0 3 0.053000 20.802784 28.465349 22.413322
238 0 3 0.053000 20.102943 28.713816 22.629244
239 0 3 0.053000 21.433357 28.746323 22.233210
240 0 2 0.248100 19.190420 27.263763 21.301325
241 0 3 0.053000 18.757153 27.354670 21.686665
242 0 3 0.053000 20.138765 27.404919 21.325750
243 0 3 0.053000 18.520119 26.649244 20.772207
244 0 2 0.248100 18.275953 26.922482 20.660612
245 0 3 0.053000 17.965282 26.869061 20.421043
246 0 3 0.053000 17.279739 26.609356 20.636971
247 0 3 0.053000 18.569012 26.593121 20.210001
248 0 2 0.248100 19.537273 28.074896 21.549072
249 0 3 0.053000 20.297997 28.690599 22.052900
250 0 3 0.053000 18.606396 27.966488 21.575443
251 0 3 0.053000 19.865501 27.943861 21.130932
252 0 4 -1.000000 21.948002 29.007511 22.517673
253 0 1 -0.628400 26.030323 27.666994 21.422163
254 0 2 0.248100 27.108728 28.408051 22.185465
255 0 3 0.053000 27.471045 28.465349 22.413322
256 0 3 0.053000 26.771206 28.713816 22.629244
257 0 3 0.053000 28.101618 28.746323 22.233210
258 0 2 0.248100 25.858681 27.263763 21.301325
259 0 3 0.053000 25.425415 27.354670 21.686665
260 0 3 0.053000 26.807026 27.404919 21.325750
261 0 3 0.053000 25.188379 26.649244 20.772207
262 0 2 0.248100 24.944214 26.922482 20.660612
263 0 3 0.053000 24.633543 26.869061 20.421043
264 0 3 0.053000 23.948002 26.609356 20.636971
265 0 3 0.053000 25.237272 26.593121 20.210001
266 0 2 0.248100 26.205534 28.074896 21.549072
267 0 3 0.053000 26.966257 28.690599 22.052900
268 0 3 0.053000 25.274658 27.966488 21.575443
269 0 3 0.053000 26.533762 27.943861 21.130932
270 0 4 -1.000000 28.616262 29.007511 22.517673
271 0 1 -0.628400 32.698586 27.666994 21.422163
272 0 2 0.248100 33.776989 28.408051 22.185465
273 0 3 0.053000 34.139305 28.465349 22.413322
274 0 3 0.053000 33.439468 28.713816 22.629244
275 0 3 0.053000 34.769882 28.746323 22.233210
276 0 2 0.248100 32.526943 27.263763 21.301325
277 0 3 0.053000 32.093674 27.354670 21.686665
278 0 3 0.053000 33.475288 27.404919 21.325750
279 0 3 0.053000 31.856640 26.649244 20.772207
280 0 2 0.248100 31.612476 26.922482 20.660612
281 0 3 0.053000 31.301804 26.869061 20.421043
282 0 3 0.053000 30.616262 26.609356 20.636971
283 0 3 0.053000 31.905535 26.593121 20.210001
284 0 2 0.248100 32.873795 28.074896 21.549072
285 0 3 0.053000 33.634521 28.690599 22.052900
286 0 3 0.053000 31.942919 27.966488 21.575443
287 0 3 0.053000 33.202023 27.943861 21.130932
288 0 4 -1.000000 35.284523 29.007511 22.517673
289 0 1 -0.628400 39.366844 27.666994 21.422163
290 0 2 0.248100 40.445251 28.408051 22.185465
291 0 3 0.053000 40.807568 28.465349 22.413322
292 0 3 0.053000 40.107727 28.713816 22.629244
293 0 3 0.053000 41.438141 28.746323 22.233210
294 0 2 0.248100 39.195206 27.263763 21.301325
295 0 3 0.053000 38.761936 27.354670 21.686665
296 0 3 0.053000 40.143547 27.404919 21.325750
297 0 3 0.053000 38.524902 26.649244 20.772207
298 0 2 0.248100 38.280739 26.922482 20.660612
299 0 3 0.053000 37.970062 26.869061 20.421043
300 0 3 0.053000 37.284523 26.609356 20.636971
301 0 3 0.053000 38.573795 26.593121 20.210001
302 0 2 0.248100 39.542053 28.074896 21.549072
303 0 3 0.053000 40.302780 28.690599 22.052900
304 0 3 0.053000 38.611179 27.966488 21.575443
305 0 3 0.053000 39.870285 27.943861 21.130932
306 0 4 -1.000000 41.952782 29.007511 22.517673
307 0 1 -0.628400 46.035103 27.666994 21.422163
308 0 2 0.248100 47.113510 28.408051 22.185465
309 0 3 0.053000 47.475830 28.465349 22.413322
310 0 3 0.053000 46.775986 28.713816 22.629244
311 0 3 0.053000 48.106400 28.746323 22.233210
312 0 2 0.248100 45.863464 27.263763 21.301325
313 0 3 0.053000 45.430199 27.354670 21.686665
314 0 3 0.053000 46.811806 27.404919 21.325750
315 0 3 0.053000 45.193161 26.649244 20.772207
316 0 2 0.248100 44.948997 26.922482 20.660612
317 0 3 0.053000 44.638329 26.869061 20.421043
318 0 3 0.053000 43.952782 26.609356 20.636971
319 0 3 0.053000 45.242058 26.593121 20.210001
320 0 2 0.248100 46.210320 28.074896 21.549072
321 0 3 0.053000 46.971039 28.690599 22.052900
322 0 3 0.053000 45.279442 27.966488 21.575443
323 0 3 0.053000 46.538544 27.943861 21.130932
324 0 4 -1.000000 48.621048 29.007511 22.517673
325 0 1 -0.628400 12.693802 32.081387 21.422163
326 0 2 0.248100 13.772205 32.822441 22.185465
327 0 3 0.053000 14.134523 32.879742 22.413322
328 0 3 0.053000 13.434683 33.128208 22.629244
329 0 3 0.053000 14.765096 33.160713 22.233210
330 0 2 0.248100 12.522160 31.678154 21.301325
331 0 3 0.053000 12.088892 31.769060 21.686665
332 0 3 0.053000 13.470505 31.819309 21.325750
333 0 3 0.053000 11.851856 31.063637 20.772207
334 0 2 0.248100 11.607693 31.336872 20.660612
335 0 3 0.053000 11.297021 31.283453 20.421043
336 0 3 0.053000 10.611479 31.023746 20.636971
337 0 3 0.053000 11.900750 31.007511 20.210001
338 0 2 0.248100 12.869012 32.489288 21.549072
339 0 3 0.053000 13.629736 33.104992 22.052900
340 0 3 0.053000 11.938135 32.380878 21.575443
341 0 3 0.053000 13.197239 32.358253 21.130932
342 0 4 -1.000000 15.279739 33.421906 22.517673
343 0 1 -0.628400 19.362062 32.081387 21.422163
344 0 2 0.248100 20.440468 32.822441 22.185465
345 0 3 0.053000 20.802784 32.879742 22.413322
346 0 3 0.053000 20.102943 33.128208 22.629244
347 0 3 0.053000 21.433357 33.160713 22.233210
348 0 2 0.248100 19.190420 31.678154 21.301325
349 0 3 0.053000 18.757153 31.769060 21.686665
350 0 3 0.053000 20.138765 31.819309 21.325750
351 0 3 0.053000 18.520119 31.063637 20.772207
352 0 2 0.248100 18.275953 31.336872 20.660612
353 0 3 0.053000 17.965282 31.283453 20.421043
354 0 3 0.053000 17.279739 31.023746 20.636971
355 0 3 0.053000 18.569012 31.007511 20.210001
356 0 2 0.248100 19.537273 32.489288 21.549072
357 0 3 0.053000 20.297997 33.104992 22.052900
358 0 3 0.053000 18.606396 32.380878 21.575443
359 0 3 0.053000 19.865501 32.358253 21.130932
360 0 4 -1.000000 21.948002 33.421906 22.517673
361 0 1 -0.628400 26.030323 32.081387 21.422163
362 0 2 0.248100 27.108728 32.822441 22.185465
363 0 3 0.053000 27.471045 32.879742 22.413322
364 0 3 0.053000 26.771206 33.128208 22.629244
365 0 3 0.053000 28.101618 33.160713 22.233210
366 0 2 0.248100 25.858681 31.678154 21.301325
367 0 3 0.053000 25.425415 31.769060 21.686665
368 0 3 0.053000 26.807026 31.819309 21.325750
369 0 3 0.053000 25.188379 31.063637 20.772207
370 0 2 0.248100 24.944214 31.336872 20.660612
371 0 3 0.053000 24.633543 31.283453 20.421043
372 0 3 0.053000 23.948002 31.023746 20.636971
373 0 3 0.053000 25.237272 31.007511 20.210001
374 0 2 0.248100 26.205534 32.489288 21.549072
375 0 3 0.053000 26.966257 33.104992 22.052900
376 0 3 0.053000 25.274658 32.380878 21.575443
377 0 3 0.053000 26.533762 32.358253 21.130932
378 0 4 -1.000000 28.616262 33.421906 22.517673
379 0 1 -0.628400 32.698586 32.081387 21.422163
380 0 2 0.248100 33.776989 32.822441 22.185465
381 0 3 0.053000 34.139305 32.879742 22.413322
382 0 3 0.053000 33.439468 33.128208 22.629244
383 0 3 0.053000 34.769882 33.160713 22.233210
384 0 2 0.248100 32.526943 31.678154 21.301325
385 0 3 0.053000 32.093674 31.769060 21.686665
386 0 3 0.053000 33.475288 31.819309 21.325750
387 0 3 0.053000 31.856640 31.063637 20.772207
388 0 2 0.248100 31.612476 31.336872 20.660612
389 0 3 0.053000 31.301804 31.283453 20.421043
390 0 3 0.053000 30.616262 31.023746 20.636971
391 0 3 0.053000 31.905535 31.007511 20.210001
392 0 2 0.248100 32.873795 32.489288 21.549072
393 0 3 0.053000 33.634521 33.104992 22.052900
394 0 3 0.053000 31.942919 32.380878 21.575443
395 0 3 0.053000 33.202023 32.358253 21.130932
396 0 4 -1.000000 35.284523 33.421906 22.517673
397 0 1 -0.628400 39.366844 32.081387 21.422163
398 0 2 0.248100 40.445251 32.822441 22.185465
399 0 3 0.053000 40.807568 32.879742 22.413322
400 0 3 0.053000 40.107727 33.128208 22.629244
401 0 3 0.053000 41.438141 33.160713 22.233210
402 0 2 0.248100 39.195206 31.678154 21.301325
403 0 3 0.053000 38.761936 31.769060 21.686665
404 0 3 0.053000 40.143547 31.819309 21.325750
405 0 3 0.053000 38.524902 31.063637 20.772207
406 0 2 0.248100 38.280739 31.336872 20.660612
407 0 3 0.053000 37.970062 31.283453 20.421043
408 0 3 0.053000 37.284523 31.023746 20.636971
409 0 3 0.053000 38.573795 31.007511 20.210001
410 0 2 0.248100 39.542053 32.489288 21.549072
411 0 3 0.053000 40.302780 33.104992 22.052900
412 0 3 0.053000 38.611179 32.380878 21.575443
413 0 3 0.053000 39.870285 32.358253 21.130932
414 0 4 -1.000000 41.952782 33.421906 22.517673
415 0 1 -0.628400 46.035103 32.081387 21.422163
416 0 2 0.248100 47.113510 32.822441 22.185465
417 0 3 0.053000 47.475830 32.879742 22.413322
418 0 3 0.053000 46.775986 33.128208 22.629244
419 0 3 0.053000 48.106400 33.160713 22.233210
420 0 2 0.248100 45.863464 31.678154 21.301325
421 0 3 0.053000 45.430199 31.769060 21.686665
422 0 3 0.053000 46.811806 31.819309 21.325750
423 0 3 0.053000 45.193161 31.063637 20.772207
424 0 2 0.248100 44.948997 31.336872 20.660612
425 0 3 0.053000 44.638329 31.283453 20.421043
426 0 3 0.053000 43.952782 31.023746 20.636971
427 0 3 0.053000 45.242058 31.007511 20.210001
428 0 2 0.248100 46.210320 32.489288 21.549072
429 0 3 0.053000 46.971039 33.104992 22.052900
430 0 3 0.053000 45.279442 32.380878 21.575443
431 0 3 0.053000 46.538544 32.358253 21.130932
432 0 4 -1.000000 48.621048 33.421906 22.517673
433 0 1 -0.628400 12.693802 36.495781 21.422163
434 0 2 0.248100 13.772205 37.236832 22.185465
435 0 3 0.053000 14.134523 37.294136 22.413322
436 0 3 0.053000 13.434683 37.542603 22.629244
437 0 3 0.053000 14.765096 37.575104 22.233210
438 0 2 0.248100 12.522160 36.092545 21.301325
439 0 3 0.053000 12.088892 36.183453 21.686665
440 0 3 0.053000 13.470505 36.233704 21.325750
441 0 3 0.053000 11.851856 35.478027 20.772207
442 0 2 0.248100 11.607693 35.751266 20.660612
443 0 3 0.053000 11.297021 35.697845 20.421043
444 0 3 0.053000 10.611479 35.438141 20.636971
445 0 3 0.053000 11.900750 35.421906 20.210001
446 0 2 0.248100 12.869012 36.903679 21.549072
447 0 3 0.053000 13.629736 37.519382 22.052900
448 0 3 0.053000 11.938135 36.795273 21.575443
449 0 3 0.053000 13.197239 36.772644 21.130932
450 0 4 -1.000000 15.279739 37.836296 22.517673
451 0 1 -0.628400 19.362062 36.495781 21.422163
452 0 2 0.248100 20.440468 37.236832 22.185465
453 0 3 0.053000 20.802784 37.294136 22.413322
454 0 3 0.053000 20.102943 37.542603 22.629244
455 0 3 0.053000 21.433357 37.575104 22.233210
456 0 2 0.248100 19.190420 36.092545 21.301325
457 0 3 0.053000 18.757153 36.183453 21.686665
458 0 3 0.053000 20.138765 36.233704 21.325750
459 0 3 0.053000 18.520119 35.478027 20.772207
460 0 2 0.248100 18.275953 35.751266 20.660612
461 0 3 0.053000 17.965282 35.697845 20.421043
462 0 3 0.053000 17.279739 35.438141 20.636971
463 0 3 0.053000 18.569012 35.421906 20.210001
464 0 2 0.248100 19.537273 36.903679 21.549072
465 0 3 0.053000 20.297997 37.519382 22.052900
466 0 3 0.053000 18.606396 36.795273 21.575443
467 0 3 0.053000 19.865501 36.772644 21.130932
468 0 4 -1.000000 21.948002 37.836296 22.517673
469 0 1 -0.628400 26.030323 36.495781 21.422163
470 0 2 0.248100 27.108728 37.236832 22.185465
471 0 3 0.053000 27.471045 37.294136 22.413322
472 0 3 0.053000 26.771206 37.542603 22.629244
473 0 3 0.053000 28.101618 37.575104 22.233210
474 0 2 0.248100 25.858681 36.092545 21.301325
475 0 3 0.053000 25.425415 36.183453 21.686665
476 0 3 0.053000 26.807026 36.233704 21.325750
477 0 3 0.053000 25.188379 35.478027 20.772207
478 0 2 0.248100 24.944214 35.751266 20.660612
479 0 3 0.053000 24.633543 35.697845 20.421043
480 0 3 0.053000 23.948002 35.438141 20.636971
481 0 3 0.053000 25.237272 35.421906 20.210001
482 0 2 0.248100 26.205534 36.903679 21.549072
483 0 3 0.053000 26.966257 37.519382 22.052900
484 0 3 0.053000 25.274658 36.795273 21.575443
485 0 3 0.053000 26.533762 36.772644 21.130932
486 0 4 -1.000000 28.616262 37.836296 22.517673
487 0 1 -0.628400 32.698586 36.495781 21.422163
488 0 2 0.248100 33.776989 37.236832 22.185465
489 0 3 0.053000 34.139305 37.294136 22.413322
490 0 3 0.053000 33.439468 37.542603 22.629244
491 0 3 0.053000 34.769882 37.575104 22.233210
492 0 2 0.248100 32.526943 36.092545 21.301325
493 0 3 0.053000 32.093674 36.183453 21.686665
494 0 3 0.053000 33.475288 36.233704 21.325750
495 0 3 0.053000 31.856640 35.478027 20.772207
496 0 2 0.248100 31.612476 35.751266 20.660612
497 0 3 0.053000 31.301804 35.697845 20.421043
498 0 3 0.053000 30.616262 35.438141 20.636971
499 0 3 0.053000 31.905535 35.421906 20.210001
500 0 2 0.248100 32.873795 36.903679 21.549072
501 0 3 0.053000 33.634521 37.519382 22.052900
502 0 3 0.053000 31.942919 36.795273 21.575443
503 0 3 0.053000 33.202023 36.772644 21.130932
504 0 4 -1.000000 35.284523 37.836296 22.517673
505 0 1 -0.628400 39.366844 36.495781 21.422163
506 0 2 0.248100 40.445251 37.236832 22.185465
507 0 3 0.053000 40.807568 37.294136 22.413322
508 0 3 0.053000 40.107727 37.542603 22.629244
509 0 3 0.053000 41.438141 37.575104 22.233210
510 0 2 0.248100 39.195206 36.092545 21.301325
511 0 3 0.053000 38.761936 36.183453 21.686665
512 0 3 0.053000 40.143547 36.233704 21.325750
513 0 3 0.053000 38.524902 35.478027 20.772207
514 0 2 0.248100 38.280739 35.751266 20.660612
515 0 3 0.053000 37.970062 35.697845 20.421043
516 0 3 0.053000 37.284523 35.438141 20.636971
517 0 3 0.053000 38.573795 35.421906 20.210001
518 0 2 0.248100 39.542053 36.903679 21.549072
519 0 3 0.053000 40.302780 37.519382 22.052900
520 0 3 0.053000 38.611179 36.795273 21.575443
521 0 3 0.053000 39.870285 36.772644 21.130932
522 0 4 -1.000000 41.952782 37.836296 22.517673
523 0 1 -0.628400 46.035103 36.495781 21.422163
524 0 2 0.248100 47.113510 37.236832 22.185465
525 0 3 0.053000 47.475830 37.294136 22.413322
526 0 3 0.053000 46.775986 37.542603 22.629244
527 0 3 0.053000 48.106400 37.575104 22.233210
528 0 2 0.248100 45.863464 36.092545 21.301325
529 0 3 0.053000 45.430199 36.183453 21.686665
530 0 3 0.053000 46.811806 36.233704 21.325750
531 0 3 0.053000 45.193161 35.478027 20.772207
532 0 2 0.248100 44.948997 35.751266 20.660612
533 0 3 0.053000 44.638329 35.697845 20.421043
534 0 3 0.053000 43.952782 35.438141 20.636971
535 0 3 0.053000 45.242058 35.421906 20.210001
536 0 2 0.248100 46.210320 36.903679 21.549072
537 0 3 0.053000 46.971039 37.519382 22.052900
538 0 3 0.053000 45.279442 36.795273 21.575443
539 0 3 0.053000 46.538544 36.772644 21.130932
540 0 4 -1.000000 48.621048 37.836296 22.517673
541 0 1 -0.628400 12.693802 40.910172 21.422163
542 0 2 0.248100 13.772205 41.651226 22.185465
543 0 3 0.053000 14.134523 41.708527 22.413322
544 0 3 0.053000 13.434683 41.956993 22.629244
545 0 3 0.053000 14.765096 41.989498 22.233210
546 0 2 0.248100 12.522160 40.506939 21.301325
547 0 3 0.053000 12.088892 40.597847 21.686665
548 0 3 0.053000 13.470505 40.648094 21.325750
549 0 3 0.053000 11.851856 39.892422 20.772207
550 0 2 0.248100 11.607693 40.165657 20.660612
551 0 3 0.053000 11.297021 40.112236 20.421043
552 0 3 0.053000 10.611479 39.852531 20.636971
553 0 3 0.053000 11.900750 39.836296 20.210001
554 0 2 0.248100 12.869012 41.318073 21.549072
555 0 3 0.053000 13.629736 41.933777 22.052900
556 0 3 0.053000 11.938135 41.209663 21.575443
557 0 3 0.053000 13.197239 41.187038 21.130932
558 0 4 -1.000000 15.279739 42.250687 22.517673
559 0 1 -0.628400 19.362062 40.910172 21.422163
560 0 2 0.248100 20.440468 41.651226 22.185465
561 0 3 0.053000 20.802784 41.708527 22.413322
562 0 3 0.053000 20.102943 41.956993 22.629244
563 0 3 0.053000 21.433357 41.989498 22.233210
564 0 2 0.248100 19.190420 40.506939 21.301325
565 0 3 0.053000 18.757153 40.597847 21.686665
566 0 3 0.053000 20.138765 40.648094 21.325750
567 0 3 0.053000 18.520119 39.892422 20.772207
568 0 2 0.248100 18.275953 40.165657 20.660612
569 0 3 0.053000 17.965282 40.112236 20.421043
570 0 3 0.053000 17.279739 39.852531 20.636971
571 0 3 0.053000 18.569012 39.836296 20.210001
572 0 2 0.248100 19.537273 41.318073 21.549072
573 0 3 0.053000 20.297997 41.933777 22.052900
574 0 3 0.053000 18.606396 41.209663 21.575443
575 0 3 0.053000 19.865501 41.187038 21.130932
576 0 4 -1.000000 21.948002 42.250687 22.517673
577 0 1 -0.628400 26.030323 40.910172 21.422163
578 0 2 0.248100 27.108728 41.651226 22.185465
579 0 3 0.053000 27.471045 41.708527 22.413322
580 0 3 0.053000 26.771206 41.956993 22.629244
581 0 3 0.053000 28.101618 41.989498 22.233210
582 0 2 0.248100 25.858681 40.506939 21.301325
583 0 3 0.053000 25.425415 40.597847 21.686665
584 0 3 0.053000 26.807026 40.648094 21.325750
585 0 3 0.053000 25.188379 39.892422 20.772207
586 0 2 0.248100 24.944214 40.165657 20.660612
587 0 3 0.053000 24.633543 40.112236 20.421043
588 0 3 0.053000 23.948002 39.852531 20.636971
589 0 3 0.053000 25.237272 39.836296 20.210001
590 0 2 0.248100 26.205534 41.318073 21.549072
591 0 3 0.053000 26.966257 41.933777 22.052900
592 0 3 0.053000 25.274658 41.209663 21.575443
593 0 3 0.053000 26.533762 41.187038 21.130932
594 0 4 -1.000000 28.616262 42.250687 22.517673
595 0 1 -0.628400 32.698586 40.910172 21.422163
596 0 2 0.248100 33.776989 41.651226 22.185465
597 0 3 0.053000 34.139305 41.708527 22.413322
598 0 3 0.053000 33.439468 41.956993 22.629244
599 0 3 0.053000 34.769882 41.989498 22.233210
600 0 2 0.248100 32.526943 40.506939 21.301325
601 0 3 0.053000 32.093674 40.597847 21.686665
602 0 3 0.053000 33.475288 40.648094 21.325750
603 0 3 0.053000 31.856640 39.892422 20.772207
604 0 2 0.248100 31.612476 40.165657 20.660612
605 0 3 0.053000 31.301804 40.112236 20.421043
606 0 3 0.053000 30.616262 39.852531 20.636971
607 0 3 0.053000 31.905535 39.836296 20.210001
608 0 2 0.248100 32.873795 41.318073 21.549072
609 0 3 0.053000 33.634521 41.933777 22.052900
610 0 3 0.053000 31.942919 41.209663 21.575443
611 0 3 0.053000 33.202023 41.187038 21.130932
612 0 4 -1.000000 35.284523 42.250687 22.517673
613 0 1 -0.628400 39.366844 40.910172 21.422163
614 0 2 0.248100 40.445251 41.651226 22.185465
615 0 3 0.053000 40.807568 41.708527 22.413322
616 0 3 0.053000 40.107727 41.956993 22.629244
617 0 3 0.053000 41.438141 41.989498 22.233210
618 0 2 0.248100 39.195206 40.506939 21.301325
619 0 3 0.053000 38.761936 40.597847 21.686665
620 0 3 0.053000 40.143547 40.648094 21.325750
621 0 3 0.053000 38.524902 39.892422 20.772207
622 0 2 0.248100 38.280739 40.165657 20.660612
623 0 3 0.053000 37.970062 40.112236 20.421043
624 0 3 0.053000 37.284523 39.852531 20.636971
625 0 3 0.053000 38.573795 39.836296 20.210001
626 0 2 0.248100 39.542053 41.318073 21.549072
627 0 3 0.053000 40.302780 41.933777 22.052900
628 0 3 0.053000 38.611179 41.209663 21.575443
629 0 3 0.053000 39.870285 41.187038 21.130932
630 0 4 -1.000000 41.952782 42.250687 22.517673
631 0 1 -0.628400 46.035103 40.910172 21.422163