LAMMPS data file containing the original structures and the polarizable gold

7650 atoms
4350 bonds
2250 angles
2700 dihedrals
0 impropers

6 atom types
3 bond types
3 angle types
1 dihedral types

-3.000000 62.014999 xlo xhi
-3.000000 62.014999 ylo yhi
-3.000000 34.467728 zlo zhi

Masses

1 14.006700
2 12.011150
3 1.007970
4 79.908997
5 195.960000
6 1.000000

Atoms

1 0 1 -0.628400 16.027842 20.603970 21.422163
2 0 2 0.248100 17.106247 21.345024 22.185465
3 0 3 0.053000 17.468563 21.402325 22.413322
4 0 3 0.053000 16.768724 21.650791 22.629244
5 0 3 0.053000 18.099136 21.683296 22.233210
6 0 2 0.248100 15.856200 20.200737 21.301325
7 0 3 0.053000 15.422934 20.291643 21.686665
8 0 3 0.053000 16.804544 20.341892 21.325750
9 0 3 0.053000 15.185898 19.586220 20.772207
10 0 2 0.248100 14.941732 19.859455 20.660612
11 0 3 0.053000 14.631062 19.806036 20.421043
12 0 3 0.053000 13.945519 19.546329 20.636971
13 0 3 0.053000 15.234791 19.530094 20.210001
14 0 2 0.248100 16.203053 21.011871 21.549072
15 0 3 0.053000 16.963776 21.627575 22.052900
16 0 3 0.053000 15.272177 20.903463 21.575443
17 0 3 0.053000 16.531281 20.880836 21.130932
18 0 4 -1.000000 18.613781 21.944487 22.517673
19 0 1 -0.628400 22.696102 20.603970 21.422163
20 0 2 0.248100 23.774508 21.345024 22.185465
21 0 3 0.053000 24.136826 21.402325 22.413322
22 0 3 0.053000 23.436985 21.650791 22.629244
23 0 3 0.053000 24.767399 21.683296 22.233210
24 0 2 0.248100 22.524460 20.200737 21.301325
25 0 3 0.053000 22.091194 20.291643 21.686665
26 0 3 0.053000 23.472805 20.341892 21.325750
27 0 3 0.053000 21.854158 19.586220 20.772207
28 0 2 0.248100 21.609993 19.859455 20.660612
29 0 3 0.053000 21.299322 19.806036 20.421043
30 0 3 0.053000 20.613781 19.546329 20.636971
31 0 3 0.053000 21.903051 19.530094 20.210001
32 0 2 0.248100 22.871315 21.011871 21.549072
33 0 3 0.053000 23.632038 21.627575 22.052900
34 0 3 0.053000 21.940437 20.903463 21.575443
35 0 3 0.053000 23.199541 20.880836 21.130932
36 0 4 -1.000000 25.282042 21.944487 22.517673
37 0 1 -0.628400 29.364365 20.603970 21.422163
38 0 2 0.248100 30.442768 21.345024 22.185465
39 0 3 0.053000 30.805084 21.402325 22.413322
40 0 3 0.053000 30.105247 21.650791 22.629244
41 0 3 0.053000 31.435658 21.683296 22.233210
42 0 2 0.248100 29.192722 20.200737 21.301325
43 0 3 0.053000 28.759457 20.291643 21.686665
44 0 3 0.053000 30.141068 20.341892 21.325750
45 0 3 0.053000 28.522419 19.586220 20.772207
46 0 2 0.248100 28.278255 19.859455 20.660612
47 0 3 0.053000 27.967583 19.806036 20.421043
48 0 3 0.053000 27.282042 19.546329 20.636971
49 0 3 0.053000 28.571312 19.530094 20.210001
50 0 2 0.248100 29.539574 21.011871 21.549072
51 0 3 0.053000 30.300297 21.627575 22.052900
52 0 3 0.053000 28.608700 20.903463 21.575443
53 0 3 0.053000 29.867802 20.880836 21.130932
54 0 4 -1.000000 31.950302 21.944487 22.517673
55 0 1 -0.628400 36.032627 20.603970 21.422163
56 0 2 0.248100 37.111031 21.345024 22.185465
57 0 3 0.053000 37.473347 21.402325 22.413322
58 0 3 0.053000 36.773506 21.650791 22.629244
59 0 3 0.053000 38.103920 21.683296 22.233210
60 0 2 0.248100 35.860985 20.200737 21.301325
61 0 3 0.053000 35.427715 20.291643 21.686665
62 0 3 0.053000 36.809330 20.341892 21.325750
63 0 3 0.053000 35.190681 19.586220 20.772207
64 0 2 0.248100 34.946518 19.859455 20.660612
65 0 3 0.053000 34.635845 19.806036 20.421043
66 0 3 0.053000 33.950302 19.546329 20.636971
67 0 3 0.053000 35.239574 19.530094 20.210001
68 0 2 0.248100 36.207836 21.011871 21.549072
69 0 3 0.053000 36.968559 21.627575 22.052900
70 0 3 0.053000 35.276958 20.903463 21.575443
71 0 3 0.053000 36.536064 20.880836 21.130932
72 0 4 -1.000000 38.618565 21.944487 22.517673
73 0 1 -0.628400 42.700886 20.603970 21.422163
74 0 2 0.248100 43.779289 21.345024 22.185465
75 0 3 0.053000 44.141609 21.402325 22.413322
76 0 3 0.053000 43.441769 21.650791 22.629244
77 0 3 0.053000 44.772179 21.683296 22.233210
78 0 2 0.248100 42.529243 20.200737 21.301325
79 0 3 0.053000 42.095978 20.291643 21.686665
80 0 3 0.053000 43.477589 20.341892 21.325750
81 0 3 0.053000 41.858940 19.586220 20.772207
82 0 2 0.248100 41.614777 19.859455 20.660612
83 0 3 0.053000 41.304104 19.806036 20.421043
84 0 3 0.053000 40.618565 19.546329 20.636971
85 0 3 0.053000 41.907837 19.530094 20.210001
86 0 2 0.248100 42.876095 21.011871 21.549072
87 0 3 0.053000 43.636822 21.627575 22.052900
88 0 3 0.053000 41.945221 20.903463 21.575443
89 0 3 0.053000 43.204323 20.880836 21.130932
90 0 4 -1.000000 45.286823 21.944487 22.517673
91 0 1 -0.628400 16.027842 25.018360 21.422163
92 0 2 0.248100 17.106247 25.759417 22.185465
93 0 3 0.053000 17.468563 25.816715 22.413322
94 0 3 0.053000 16.768724 26.065182 22.629244
95 0 3 0.053000 18.099136 26.097689 22.233210
96 0 2 0.248100 15.856200 24.615129 21.301325
97 0 3 0.053000 15.422934 24.706036 21.686665
98 0 3 0.053000 16.804544 24.756283 21.325750
99 0 3 0.053000 15.185898 24.000610 20.772207
100 0 2 0.248100 14.941732 24.273848 20.660612
101 0 3 0.053000 14.631062 24.220428 20.421043
102 0 3 0.053000 13.945519 23.960722 20.636971
103 0 3 0.053000 15.234791 23.944487 20.210001
104 0 2 0.248100 16.203053 25.426262 21.549072
105 0 3 0.053000 16.963776 26.041965 22.052900
106 0 3 0.053000 15.272177 25.317856 21.575443
107 0 3 0.053000 16.531281 25.295227 21.130932
108 0 4 -1.000000 18.613781 26.358879 22.517673
109 0 1 -0.628400 22.696102 25.018360 21.422163
110 0 2 0.248100 23.774508 25.759417 22.185465
111 0 3 0.053000 24.136826 25.816715 22.413322
112 0 3 0.053000 23.436985 26.065182 22.629244
113 0 3 0.053000 24.767399 26.097689 22.233210
114 0 2 0.248100 22.524460 24.615129 21.301325
115 0 3 0.053000 22.091194 24.706036 21.686665
116 0 3 0.053000 23.472805 24.756283 21.325750
117 0 3 0.053000 21.854158 24.000610 20.772207
118 0 2 0.248100 21.609993 24.273848 20.660612
119 0 3 0.053000 21.299322 24.220428 20.421043
120 0 3 0.053000 20.613781 23.960722 20.636971
121 0 3 0.053000 21.903051 23.944487 20.210001
122 0 2 0.248100 22.871315 25.426262 21.549072
123 0 3 0.053000 23.632038 26.041965 22.052900
124 0 3 0.053000 21.940437 25.317856 21.575443
125 0 3 0.053000 23.199541 25.295227 21.130932
126 0 4 -1.000000 25.282042 26.358879 22.517673
127 0 1 -0.628400 29.364365 25.018360 21.422163
128 0 2 0.248100 30.442768 25.759417 22.185465
129 0 3 0.053000 30.805084 25.816715 22.413322
130 0 3 0.053000 30.105247 26.065182 22.629244
131 0 3 0.053000 31.435658 26.097689 22.233210
132 0 2 0.248100 29.192722 24.615129 21.301325
133 0 3 0.053000 28.759457 24.706036 21.686665
134 0 3 0.053000 30.141068 24.756283 21.325750
135 0 3 0.053000 28.522419 24.000610 20.772207
136 0 2 0.248100 28.278255 24.273848 20.660612
137 0 3 0.053000 27.967583 24.220428 20.421043
138 0 3 0.053000 27.282042 23.960722 20.636971
139 0 3 0.053000 28.571312 23.944487 20.210001
140 0 2 0.248100 29.539574 25.426262 21.549072
141 0 3 0.053000 30.300297 26.041965 22.052900
142 0 3 0.053000 28.608700 25.317856 21.575443
143 0 3 0.053000 29.867802 25.295227 21.130932
144 0 4 -1.000000 31.950302 26.358879 22.517673
145 0 1 -0.628400 36.032627 25.018360 21.422163
146 0 2 0.248100 37.111031 25.759417 22.185465
147 0 3 0.053000 37.473347 25.816715 22.413322
148 0 3 0.053000 36.773506 26.065182 22.629244
149 0 3 0.053000 38.103920 26.097689 22.233210
150 0 2 0.248100 35.860985 24.615129 21.301325
151 0 3 0.053000 35.427715 24.706036 21.686665
152 0 3 0.053000 36.809330 24.756283 21.325750
153 0 3 0.053000 35.190681 24.000610 20.772207
154 0 2 0.248100 34.946518 24.273848 20.660612
155 0 3 0.053000 34.635845 24.220428 20.421043
156 0 3 0.053000 33.950302 23.960722 20.636971
157 0 3 0.053000 35.239574 23.944487 20.210001
158 0 2 0.248100 36.207836 25.426262 21.549072
159 0 3 0.053000 36.968559 26.041965 22.052900
160 0 3 0.053000 35.276958 25.317856 21.575443
161 0 3 0.053000 36.536064 25.295227 21.130932
162 0 4 -1.000000 38.618565 26.358879 22.517673
163 0 1 -0.628400 42.700886 25.018360 21.422163
164 0 2 0.248100 43.779289 25.759417 22.185465
165 0 3 0.053000 44.141609 25.816715 22.413322
166 0 3 0.053000 43.441769 26.065182 22.629244
167 0 3 0.053000 44.772179 26.097689 22.233210
168 0 2 0.248100 42.529243 24.615129 21.301325
169 0 3 0.053000 42.095978 24.706036 21.686665
170 0 3 0.053000 43.477589 24.756283 21.325750
171 0 3 0.053000 41.858940 24.000610 20.772207
172 0 2 0.248100 41.614777 24.273848 20.660612
173 0 3 0.053000 41.304104 24.220428 20.421043
174 0 3 0.053000 40.618565 23.960722 20.636971
175 0 3 0.053000 41.907837 23.944487 20.210001
176 0 2 0.248100 42.876095 25.426262 21.549072
177 0 3 0.053000 43.636822 26.041965 22.052900
178 0 3 0.053000 41.945221 25.317856 21.575443
179 0 3 0.053000 43.204323 25.295227 21.130932
180 0 4 -1.000000 45.286823 26.358879 22.517673
181 0 1 -0.628400 16.027842 29.432753 21.422163
182 0 2 0.248100 17.106247 30.173809 22.185465
183 0 3 0.053000 17.468563 30.231108 22.413322
184 0 3 0.053000 16.768724 30.479574 22.629244
185 0 3 0.053000 18.099136 30.512081 22.233210
186 0 2 0.248100 15.856200 29.029522 21.301325
187 0 3 0.053000 15.422934 29.120428 21.686665
188 0 3 0.053000 16.804544 29.170677 21.325750
189 0 3 0.053000 15.185898 28.415003 20.772207
190 0 2 0.248100 14.941732 28.688240 20.660612
191 0 3 0.053000 14.631062 28.634819 20.421043
192 0 3 0.053000 13.945519 28.375114 20.636971
193 0 3 0.053000 15.234791 28.358879 20.210001
194 0 2 0.248100 16.203053 29.840654 21.549072
195 0 3 0.053000 16.963776 30.456358 22.052900
196 0 3 0.053000 15.272177 29.732246 21.575443
197 0 3 0.053000 16.531281 29.709620 21.130932
198 0 4 -1.000000 18.613781 30.773270 22.517673
199 0 1 -0.628400 22.696102 29.432753 21.422163
200 0 2 0.248100 23.774508 30.173809 22.185465
201 0 3 0.053000 24.136826 30.231108 22.413322
202 0 3 0.053000 23.436985 30.479574 22.629244
203 0 3 0.053000 24.767399 30.512081 22.233210
204 0 2 0.248100 22.524460 29.029522 21.301325
205 0 3 0.053000 22.091194 29.120428 21.686665
206 0 3 0.053000 23.472805 29.170677 21.325750
207 0 3 0.053000 21.854158 28.415003 20.772207
208 0 2 0.248100 21.609993 28.688240 20.660612
209 0 3 0.053000 21.299322 28.634819 20.421043
210 0 3 0.053000 20.613781 28.375114 20.636971
211 0 3 0.053000 21.903051 28.358879 20.210001
212 0 2 0.248100 22.871315 29.840654 21.549072
213 0 3 0.053000 23.632038 30.456358 22.052900
214 0 3 0.053000 21.940437 29.732246 21.575443
215 0 3 0.053000 23.199541 29.709620 21.130932
216 0 4 -1.000000 25.282042 30.773270 22.517673
217 0 1 -0.628400 29.364365 29.432753 21.422163
218 0 2 0.248100 30.442768 30.173809 22.185465
219 0 3 0.053000 30.805084 30.231108 22.413322
220 0 3 0.053000 30.105247 30.479574 22.629244
221 0 3 0.053000 31.435658 30.512081 22.233210
222 0 2 0.248100 29.192722 29.029522 21.301325
223 0 3 0.053000 28.759457 29.120428 21.686665
224 0 3 0.053000 30.141068 29.170677 21.325750
225 0 3 0.053000 28.522419 28.415003 20.772207
226 0 2 0.248100 28.278255 28.688240 20.660612
227 0 3 0.053000 27.967583 28.634819 20.421043
228 0 3 0.053000 27.282042 28.375114 20.636971
229 0 3 0.053000 28.571312 28.358879 20.210001
230 0 2 0.248100 29.539574 29.840654 21.549072
231 0 3 0.053000 30.300297 30.456358 22.052900
232 0 3 0.053000 28.608700 29.732246 21.575443
233 0 3 0.053000 29.867802 29.709620 21.130932
234 0 4 -1.000000 31.950302 30.773270 22.517673
235 0 1 -0.628400 36.032627 29.432753 21.422163
236 0 2 0.248100 37.111031 30.173809 22.185465
237 0 3 0.053000 37.473347 30.231108 22.413322
238 0 3 0.053000 36.773506 30.479574 22.629244
239 0 3 0.053000 38.103920 30.512081 22.233210
240 0 2 0.248100 35.860985 29.029522 21.301325
241 0 3 0.053000 35.427715 29.120428 21.686665
242 0 3 0.053000 36.809330 29.170677 21.325750
243 0 3 0.053000 35.190681 28.415003 20.772207
244 0 2 0.248100 34.946518 28.688240 20.660612
245 0 3 0.053000 34.635845 28.634819 20.421043
246 0 3 0.053000 33.950302 28.375114 20.636971
247 0 3 0.053000 35.239574 28.358879 20.210001
248 0 2 0.248100 36.207836 29.840654 21.549072
249 0 3 0.053000 36.968559 30.456358 22.052900
250 0 3 0.053000 35.276958 29.732246 21.575443
251 0 3 0.053000 36.536064 29.709620 21.130932
252 0 4 -1.000000 38.618565 30.773270 22.517673
253 0 1 -0.628400 42.700886 29.432753 21.422163
254 0 2 0.248100 43.779289 30.173809 22.185465
255 0 3 0.053000 44.141609 30.231108 22.413322
256 0 3 0.053000 43.441769 30.479574 22.629244
257 0 3 0.053000 44.772179 30.512081 22.233210
258 0 2 0.248100 42.529243 29.029522 21.301325
259 0 3 0.053000 42.095978 29.120428 21.686665
260 0 3 0.053000 43.477589 29.170677 21.325750
261 0 3 0.053000 41.858940 28.415003 20.772207
262 0 2 0.248100 41.614777 28.688240 20.660612
263 0 3 0.053000 41.304104 28.634819 20.421043
264 0 3 0.053000 40.618565 28.375114 20.636971
265 0 3 0.053000 41.907837 28.358879 20.210001
266 0 2 0.248100 42.876095 29.840654 21.549072
267 0 3 0.053000 43.636822 30.456358 22.052900
268 0 3 0.053000 41.945221 29.732246 21.575443
269 0 3 0.053000 43.204323 29.709620 21.130932
270 0 4 -1.000000 45.286823 30.773270 22.517673
271 0 1 -0.628400 16.027842 33.847145 21.422163
272 0 2 0.248100 17.106247 34.588200 22.185465
273 0 3 0.053000 17.468563 34.645500 22.413322
274 0 3 0.053000 16.768724 34.893967 22.629244
275 0 3 0.053000 18.099136 34.926472 22.233210
276 0 2 0.248100 15.856200 33.443913 21.301325
277 0 3 0.053000 15.422934 33.534821 21.686665
278 0 3 0.053000 16.804544 33.585068 21.325750
279 0 3 0.053000 15.185898 32.829395 20.772207
280 0 2 0.248100 14.941732 33.102631 20.660612
281 0 3 0.053000 14.631062 33.049210 20.421043
282 0 3 0.053000 13.945519 32.789505 20.636971
283 0 3 0.053000 15.234791 32.773270 20.210001
284 0 2 0.248100 16.203053 34.255047 21.549072
285 0 3 0.053000 16.963776 34.870750 22.052900
286 0 3 0.053000 15.272177 34.146637 21.575443
287 0 3 0.053000 16.531281 34.124012 21.130932
288 0 4 -1.000000 18.613781 35.187660 22.517673
289 0 1 -0.628400 22.696102 33.847145 21.422163
290 0 2 0.248100 23.774508 34.588200 22.185465
291 0 3 0.053000 24.136826 34.645500 22.413322
292 0 3 0.053000 23.436985 34.893967 22.629244
293 0 3 0.053000 24.767399 34.926472 22.233210
294 0 2 0.248100 22.524460 33.443913 21.301325
295 0 3 0.053000 22.091194 33.534821 21.686665
296 0 3 0.053000 23.472805 33.585068 21.325750
297 0 3 0.053000 21.854158 32.829395 20.772207
298 0 2 0.248100 21.609993 33.102631 20.660612
299 0 3 0.053000 21.299322 33.049210 20.421043
300 0 3 0.053000 20.613781 32.789505 20.636971
301 0 3 0.053000 21.903051 32.773270 20.210001
302 0 2 0.248100 22.871315 34.255047 21.549072
303 0 3 0.053000 23.632038 34.870750 22.052900
304 0 3 0.053000 21.940437 34.146637 21.575443
305 0 3 0.053000 23.199541 34.124012 21.130932
306 0 4 -1.000000 25.282042 35.187660 22.517673
307 0 1 -0.628400 29.364365 33.847145 21.422163
308 0 2 0.248100 30.442768 34.588200 22.185465
309 0 3 0.053000 30.805084 34.645500 22.413322
310 0 3 0.053000 30.105247 34.893967 22.629244
311 0 3 0.053000 31.435658 34.926472 22.233210
312 0 2 0.248100 29.192722 33.443913 21.301325
313 0 3 0.053000 28.759457 33.534821 21.686665
314 0 3 0.053000 30.141068 33.585068 21.325750
315 0 3 0.053000 28.522419 32.829395 20.772207
316 0 2 0.248100 28.278255 33.102631 20.660612
317 0 3 0.053000 27.967583 33.049210 20.421043
318 0 3 0.053000 27.282042 32.789505 20.636971
319 0 3 0.053000 28.571312 32.773270 20.210001
320 0 2 0.248100 29.539574 34.255047 21.549072
321 0 3 0.053000 30.300297 34.870750 22.052900
322 0 3 0.053000 28.608700 34.146637 21.575443
323 0 3 0.053000 29.867802 34.124012 21.130932
324 0 4 -1.000000 31.950302 35.187660 22.517673
325 0 1 -0.628400 36.032627 33.847145 21.422163
326 0 2 0.248100 37.111031 34.588200 22.185465
327 0 3 0.053000 37.473347 34.645500 22.413322
328 0 3 0.053000 36.773506 34.893967 22.629244
329 0 3 0.053000 38.103920 34.926472 22.233210
330 0 2 0.248100 35.860985 33.443913 21.301325
331 0 3 0.053000 35.427715 33.534821 21.686665
332 0 3 0.053000 36.809330 33.585068 21.325750
333 0 3 0.053000 35.190681 32.829395 20.772207
334 0 2 0.248100 34.946518 33.102631 20.660612
335 0 3 0.053000 34.635845 33.049210 20.421043
336 0 3 0.053000 33.950302 32.789505 20.636971
337 0 3 0.053000 35.239574 32.773270 20.210001
338 0 2 0.248100 36.207836 34.255047 21.549072
339 0 3 0.053000 36.968559 34.870750 22.052900
340 0 3 0.053000 35.276958 34.146637 21.575443
341 0 3 0.053000 36.536064 34.124012 21.130932
342 0 4 -1.000000 38.618565 35.187660 22.517673
343 0 1 -0.628400 42.700886 33.847145 21.422163
344 0 2 0.248100 43.779289 34.588200 22.185465
345 0 3 0.053000 44.141609 34.645500 22.413322
346 0 3 0.053000 43.441769 34.893967 22.629244
347 0 3 0.053000 44.772179 34.926472 22.233210
348 0 2 0.248100 42.529243 33.443913 21.301325
349 0 3 0.053000 42.095978 33.534821 21.686665
350 0 3 0.053000 43.477589 33.585068 21.325750
351 0 3 0.053000 41.858940 32.829395 20.772207
352 0 2 0.248100 41.614777 33.102631 20.660612
353 0 3 0.053000 41.304104 33.049210 20.421043
354 0 3 0.053000 40.618565 32.789505 20.636971
355 0 3 0.053000 41.907837 32.773270 20.210001
356 0 2 0.248100 42.876095 34.255047 21.549072
357 0 3 0.053000 43.636822 34.870750 22.052900
358 0 3 0.053000 41.945221 34.146637 21.575443
359 0 3 0.053000 43.204323 34.124012 21.130932
360 0 4 -1.000000 45.286823 35.187660 22.517673
361 0 1 -0.628400 16.027842 38.261536 21.422163
362 0 2 0.248100 17.106247 39.002594 22.185465
363 0 3 0.053000 17.468563 39.059891 22.413322
364 0 3 0.053000 16.768724 39.308357 22.629244
365 0 3 0.053000 18.099136 39.340866 22.233210
366 0 2 0.248100 15.856200 37.858307 21.301325
367 0 3 0.053000 15.422934 37.949211 21.686665
368 0 3 0.053000 16.804544 37.999458 21.325750
369 0 3 0.053000 15.185898 37.243790 20.772207
370 0 2 0.248100 14.941732 37.517021 20.660612
371 0 3 0.053000 14.631062 37.463604 20.421043
372 0 3 0.053000 13.945519 37.203896 20.636971
373 0 3 0.053000 15.234791 37.187660 20.210001
374 0 2 0.248100 16.203053 38.669441 21.549072
375 0 3 0.053000 16.963776 39.285141 22.052900
376 0 3 0.053000 15.272177 38.561031 21.575443
377 0 3 0.053000 16.531281 38.538406 21.130932
378 0 4 -1.000000 18.613781 39.602055 22.517673
379 0 1 -0.628400 22.696102 38.261536 21.422163
380 0 2 0.248100 23.774508 39.002594 22.185465
381 0 3 0.053000 24.136826 39.059891 22.413322
382 0 3 0.053000 23.436985 39.308357 22.629244
383 0 3 0.053000 24.767399 39.340866 22.233210
384 0 2 0.248100 22.524460 37.858307 21.301325
385 0 3 0.053000 22.091194 37.949211 21.686665
386 0 3 0.053000 23.472805 37.999458 21.325750
387 0 3 0.053000 21.854158 37.243790 20.772207
388 0 2 0.248100 21.609993 37.517021 20.660612
389 0 3 0.053000 21.299322 37.463604 20.421043
390 0 3 0.053000 20.613781 37.203896 20.636971
391 0 3 0.053000 21.903051 37.187660 20.210001
392 0 2 0.248100 22.871315 38.669441 21.549072
393 0 3 0.053000 23.632038 39.285141 22.052900
394 0 3 0.053000 21.940437 38.561031 21.575443
395 0 3 0.053000 23.199541 38.538406 21.130932
396 0 4 -1.000000 25.282042 39.602055 22.517673
397 0 1 -0.628400 29.364365 38.261536 21.422163
398 0 2 0.248100 30.442768 39.002594 22.185465
399 0 3 0.053000 30.805084 39.059891 22.413322
400 0 3 0.053000 30.105247 39.308357 22.629244
401 0 3 0.053000 31.435658 39.340866 22.233210
402 0 2 0.248100 29.192722 37.858307 21.301325
403 0 3 0.053000 28.759457 37.949211 21.686665
404 0 3 0.053000 30.141068 37.999458 21.325750
405 0 3 0.053000 28.522419 37.243790 20.772207
406 0 2 0.248100 28.278255 37.517021 20.660612
407 0 3 0.053000 27.967583 37.463604 20.421043
408 0 3 0.053000 27.282042 37.203896 20.636971
409 0 3 0.053000 28.571312 37.187660 20.210001
410 0 2 0.248100 29.539574 38.669441 21.549072
411 0 3 0.053000 30.300297 39.285141 22.052900
412 0 3 0.053000 28.608700 38.561031 21.575443
413 0 3 0.053000 29.867802 38.538406 21.130932
414 0 4 -1.000000 31.950302 39.602055 22.517673
415 0 1 -0.628400 36.032627 38.261536 21.422163
416 0 2 0.248100 37.111031 39.002594 22.185465
417 0 3 0.053000 37.473347 39.059891 22.413322
418 0 3 0.053000 36.773506 39.308357 22.629244
419 0 3 0.053000 38.103920 39.340866 22.233210
420 0 2 0.248100 35.860985 37.858307 21.301325
421 0 3 0.053000 35.427715 37.949211 21.686665
422 0 3 0.053000 36.809330 37.999458 21.325750
423 0 3 0.053000 35.190681 37.243790 20.772207
424 0 2 0.248100 34.946518 37.517021 20.660612
425 0 3 0.053000 34.635845 37.463604 20.421043
426 0 3 0.053000 33.950302 37.203896 20.636971
427 0 3 0.053000 35.239574 37.187660 20.210001
428 0 2 0.248100 36.207836 38.669441 21.549072
429 0 3 0.053000 36.968559 39.285141 22.052900
430 0 3 0.053000 35.276958 38.561031 21.575443
431 0 3 0.053000 36.536064 38.538406 21.130932
432 0 4 -1.000000 38.618565 39.602055 22.517673
433 0 1 -0.628400 42.700886 38.261536 21.422163
434 0 2 0.248100 43.779289 39.002594 22.185465
435 0 3 0.053000 44.141609 39.059891 22.413322
436 0 3 0.053000 43.441769 39.308357 22.629244
437 0 3 0.053000 44.772179 39.340866 22.233210
438 0 2 0.248100 42.529243 37.858307 21.301325
439 0 3 0.053000 42.095978 37.949211 21.686665
440 0 3 0.053000 43.477589 37.999458 21.325750
441 0 3 0.053000 41.858940 37.243790 20.772207
442 0 2 0.248100 41.614777 37.517021 20.660612
443 0 3 0.053000 41.304104 37.463604 20.421043
444 0 3 0.053000 40.618565 37.203896 20.636971
445 0 3 0.053000 41.907837 37.187660 20.210001
446 0 2 0.248100 42.876095 38.669441 21.549072
447 0 3 0.053000 43.636822 39.285141 22.052900
448 0 3 0.053000 41.945221 38.561031 21.575443
449 0 3 0.053000 43.204323 38.538406 21.130932
450 0 4 -1.000000 45.286823 39.602055 22.517673
451 0 1 -0.628400 16.027842 20.603970 25.841406
452 0 2 0.248100 17.106247 21.345024 26.604708
453 0 3 0.053000 17.468563 21.402325 26.832565
454 0 3 0.053000 16.768724 21.650791 27.048485
455 0 3 0.053000 18.099136 21.683296 26.652451
456 0 2 0.248100 15.856200 20.200737 25.720566
457 0 3 0.053000 15.422934 20.291643 26.105907
458 0 3 0.053000 16.804544 20.341892 25.744991
459 0 3 0.053000 15.185898 19.586220 25.191450
460 0 2 0.248100 14.941732 19.859455 25.079853
461 0 3 0.053000 14.631062 19.806036 24.840286
462 0 3 0.053000 13.945519 19.546329 25.056213
463 0 3 0.053000 15.234791 19.530094 24.629244
464 0 2 0.248100 16.203053 21.011871 25.968315
465 0 3 0.053000 16.963776 21.627575 26.472141
466 0 3 0.053000 15.272177 20.903463 25.994686
467 0 3 0.053000 16.531281 20.880836 25.550175
468 0 4 -1.000000 18.613781 21.944487 26.936916
469 0 1 -0.628400 22.696102 20.603970 25.841406
470 0 2 0.248100 23.774508 21.345024 26.604708
471 0 3 0.053000 24.136826 21.402325 26.832565
472 0 3 0.053000 23.436985 21.650791 27.048485
473 0 3 0.053000 24.767399 21.683296 26.652451
474 0 2 0.248100 22.524460 20.200737 25.720566
475 0 3 0.053000 22.091194 20.291643 26.105907
476 0 3 0.053000 23.472805 20.341892 25.744991
477 0 3 0.053000 21.854158 19.586220 25.191450
478 0 2 0.248100 21.609993 19.859455 25.079853
479 0 3 0.053000 21.299322 19.806036 24.840286
480 0 3 0.053000 20.613781 19.546329 25.056213
481 0 3 0.053000 21.903051 19.530094 24.629244
482 0 2 0.248100 22.871315 21.011871 25.968315
483 0 3 0.053000 23.632038 21.627575 26.472141
484 0 3 0.053000 21.940437 20.903463 25.994686
485 0 3 0.053000 23.199541 20.880836 25.550175
486 0 4 -1.000000 25.282042 21.944487 26.936916
487 0 1 -0.628400 29.364365 20.603970 25.841406
488 0 2 0.248100 30.442768 21.345024 26.604708
489 0 3 0.053000 30.805084 21.402325 26.832565
490 0 3 0.053000 30.105247 21.650791 27.048485
491 0 3 0.053000 31.435658 21.683296 26.652451
492 0 2 0.248100 29.192722 20.200737 25.720566
493 0 3 0.053000 28.759457 20.291643 26.105907
494 0 3 0.053000 30.141068 20.341892 25.744991
495 0 3 0.053000 28.522419 19.586220 25.191450
496 0 2 0.248100 28.278255 19.859455 25.079853
497 0 3 0.053000 27.967583 19.806036 24.840286
498 0 3 0.053000 27.282042 19.546329 25.056213
499 0 3 0.053000 28.571312 19.530094 24.629244
500 0 2 0.248100 29.539574 21.011871 25.968315
501 0 3 0.053000 30.300297 21.627575 26.472141
502 0 3 0.053000 28.608700 20.903463 25.994686
503 0 3 0.053000 29.867802 20.880836 25.550175
504 0 4 -1.000000 31.950302 21.944487 26.936916
505 0 1 -0.628400 36.032627 20.603970 25.841406
506 0 2 0.248100 37.111031 21.345024 26.604708
507 0 3 0.053000 37.473347 21.402325 26.832565
508 0 3 0.053000 36.773506 21.650791 27.048485
509 0 3 0.053000 38.103920 21.683296 26.652451
510 0 2 0.248100 35.860985 20.200737 25.720566
511 0 3 0.053000 35.427715 20.291643 26.105907
512 0 3 0.053000 36.809330 20.341892 25.744991
513 0 3 0.053000 35.190681 19.586220 25.191450
514 0 2 0.248100 34.946518 19.859455 25.079853
515 0 3 0.053000 34.635845 19.806036 24.840286
516 0 3 0.053000 33.950302 19.546329 25.056213
517 0 3 0.053000 35.239574 19.530094 24.629244
518 0 2 0.248100 36.207836 21.011871 25.968315
519 0 3 0.053000 36.968559 21.627575 26.472141
520 0 3 0.053000 35.276958 20.903463 25.994686
521 0 3 0.053000 36.536064 20.880836 25.550175
522 0 4 -1.000000 38.618565 21.944487 26.936916
523 0 1 -0.628400 42.700886 20.603970 25.841406
524 0 2 0.248100 43.779289 21.345024 26.604708
525 0 3 0.053000 44.141609 21.402325 26.832565
526 0 3 0.053000 43.441769 21.650791 27.048485
527 0 3 0.053000 44.772179 21.683296 26.652451
528 0 2 0.248100 42.529243 20.200737 25.720566
529 0 3 0.053000 42.095978 20.291643 26.105907
530 0 3 0.053000 43.477589 20.341892 25.744991
531 0 3 0.053000 41.858940 19.586220 25.191450
532 0 2 0.248100 41.614777 19.859455 25.079853
533 0 3 0.053000 41.304104 19.806036 24.840286
534 0 3 0.053000 40.618565 19.546329 25.056213
535 0 3 0.053000 41.907837 19.530094 24.629244
536 0 2 0.248100 42.876095 21.011871 25.968315
537 0 3 0.053000 43.636822 21.627575 26.472141
538 0 3 0.053000 41.945221 20.903463 25.994686
539 0 3 0.053000 43.204323 20.880836 25.550175
540 0 4 -1.000000 45.286823 21.944487 26.936916
541 0 1 -0.628400 16.027842 25.018360 25.841406
542 0 2 0.248100 17.106247 25.759417 26.604708
543 0 3 0.053000 17.468563 25.816715 26.832565
544 0 3 0.053000 16.768724 26.065182 27.048485
545 0 3 0.053000 18.099136 26.097689 26.652451
546 0 2 0.248100 15.856200 24.615129 25.720566
547 0 3 0.053000 15.422934 24.706036 26.105907
548 0 3 0.053000 16.804544 24.756283 25.744991
549 0 3 0.053000 15.185898 24.000610 25.191450
550 0 2 0.248100 14.941732 24.273848 25.079853
551 0 3 0.053000 14.631062 24.220428 24.840286
552 0 3 0.053000 13.945519 23.960722 25.056213
553 0 3 0.053000 15.234791 23.944487 24.629244
554 0 2 0.248100 16.203053 25.426262 25.968315
555 0 3 0.053000 16.963776 26.041965 26.472141
556 0 3 0.053000 15.272177 25.317856 25.994686
557 0 3 0.053000 16.531281 25.295227 25.550175
558 0 4 -1.000000 18.613781 26.358879 26.936916
559 0 1 -0.628400 22.696102 25.018360 25.841406
560 0 2 0.248100 23.774508 25.759417 26.604708
561 0 3 0.053000 24.136826 25.816715 26.832565
562 0 3 0.053000 23.436985 26.065182 27.048485
563 0 3 0.053000 24.767399 26.097689 26.652451
564 0 2 0.248100 22.524460 24.615129 25.720566
565 0 3 0.053000 22.091194 24.706036 26.105907
566 0 3 0.053000 23.472805 24.756283 25.744991
567 0 3 0.053000 21.854158 24.000610 25.191450
568 0 2 0.248100 21.609993 24.273848 25.079853
569 0 3 0.053000 21.299322 24.220428 24.840286
570 0 3 0.053000 20.613781 23.960722 25.056213
571 0 3 0.053000 21.903051 23.944487 24.629244
572 0 2 0.248100 22.871315 25.426262 25.968315
573 0 3 0.053000 23.632038 26.041965 26.472141
574 0 3 0.053000 21.940437 25.317856 25.994686
575 0 3 0.053000 23.199541 25.295227 25.550175
576 0 4 -1.000000 25.282042 26.358879 26.936916
577 0 1 -0.628400 29.364365 25.018360 25.841406
578 0 2 0.248100 30.442768 25.759417 26.604708
579 0 3 0.053000 30.805084 25.816715 26.832565
580 0 3 0.053000 30.105247 26.065182 27.048485
581 0 3 0.053000 31.435658 26.097689 26.652451
582 0 2 0.248100 29.192722 24.615129 25.720566
583 0 3 0.053000 28.759457 24.706036 26.105907
584 0 3 0.053000 30.141068 24.756283 25.744991
585 0 3 0.053000 28.522419 24.000610 25.191450
586 0 2 0.248100 28.278255 24.273848 25.079853
587 0 3 0.053000 27.967583 24.220428 24.840286
588 0 3 0.053000 27.282042 23.960722 25.056213
589 0 3 0.053000 28.571312 23.944487 24.629244
590 0 2 0.248100 29.539574 25.426262 25.968315
591 0 3 0.053000 30.300297 26.041965 26.472141
592 0 3 0.053000 28.608700 25.317856 25.994686
593 0 3 0.053000 29.867802 25.295227 25.550175
594 0 4 -1.000000 31.950302 26.358879 26.936916
595 0 1 -0.628400 36.032627 25.018360 25.841406
596 0 2 0.248100 37.111031 25.759417 26.604708
597 0 3 0.053000 37.473347 25.816715 26.832565
598 0 3 0.053000 36.773506 26.065182 27.048485
599 0 3 0.053000 38.103920 26.097689 26.652451
600 0 2 0.248100 35.860985 24.615129 25.720566
601 0 3 0.053000 35.427715 24.706036 26.105907
602 0 3 0.053000 36.809330 24.756283 25.744991
603 0 3 0.053000 35.190681 24.000610 25.191450
604 0 2 0.248100 34.946518 24.273848 25.079853
605 0 3 0.053000 34.635845 24.220428 24.840286
606 0 3 0.053000 33.950302 23.960722 25.056213
607 0 3 0.053000 35.239574 23.944487 24.629244
608 0 2 0.248100 36.207836 25.426262 25.968315
609 0 3 0.053000 36.968559 26.041965 26.472141
610 0 3 0.053000 35.276958 25.317856 25.994686
611 0 3 0.053000 36.536064 25.295227 25.550175
612 0 4 -1.000000 38.618565 26.358879 26.936916
613 0 1 -0.628400 42.700886 25.018360 25.841406
614 0 2 0.248100 43.779289 25.759417 26.604708
615 0 3 0.053000 44.141609 25.816715 26.832565
616 0 3 0.053000 43.441769 26.065182 27.048485
617 0 3 0.053000 44.772179 26.097689 26.652451
618 0 2 0.248100 42.529243 24.615129 25.720566
619 0 3 0.053000 42.095978 24.706036 26.105907
620 0 3 0.053000 43.477589 24.756283 25.744991
621 0 3 0.053000 41.858940 24.000610 25.191450
622 0 2 0.248100 41.614777 24.273848 25.079853
623 0 3 0.053000 41.304104 24.220428 24.840286
624 0 3 0.053000 40.618565 23.960722 25.056213
625 0 3 0.053000 41.907837 23.944487 24.629244
626 0 2 0.248100 42.876095 25.426262 25.968315
627 0 3 0.053000 43.636822 26.041965 26.472141
628 0 3 0.053000 41.945221 25.317856 25.994686
629 0 3 0.053000 43.204323 25.295227 25.550175
630 0 4 -1.000000 45.286823 26.358879 26.936916
631 0 1 -0.628400 16.027842 29.432753 25.841406