LAMMPS data file containing the original structures and the polarizable gold

8406 atoms
4728 bonds
2250 angles
2700 dihedrals
0 impropers

6 atom types
3 bond types
3 angle types
1 dihedral types

-3.000000 61.985802 xlo xhi
-3.000000 61.997501 ylo yhi
-3.000000 36.356628 zlo zhi

Masses

1 14.006700
2 12.011150
3 1.007970
4 79.908997
5 195.960000
6 1.000000

Atoms

1 0 1 -0.628400 15.894321 20.595047 23.311062
2 0 2 0.248100 16.972727 21.336102 24.074364
3 0 3 0.053000 17.335043 21.393402 24.302221
4 0 3 0.053000 16.635204 21.641869 24.518143
5 0 3 0.053000 17.965616 21.674374 24.122108
6 0 2 0.248100 15.722680 20.191814 23.190224
7 0 3 0.053000 15.289413 20.282721 23.575565
8 0 3 0.053000 16.671024 20.332970 23.214649
9 0 3 0.053000 15.052378 19.577297 22.661106
10 0 2 0.248100 14.808212 19.850533 22.549511
11 0 3 0.053000 14.497541 19.797113 22.309942
12 0 3 0.053000 13.811999 19.537407 22.525869
13 0 3 0.053000 15.101271 19.521172 22.098900
14 0 2 0.248100 16.069532 21.002949 23.437971
15 0 3 0.053000 16.830257 21.618652 23.941799
16 0 3 0.053000 15.138657 20.894541 23.464342
17 0 3 0.053000 16.397760 20.871914 23.019831
18 0 4 -1.000000 18.480261 21.935564 24.406572
19 0 1 -0.628400 22.562584 20.595047 23.311062
20 0 2 0.248100 23.640987 21.336102 24.074364
21 0 3 0.053000 24.003304 21.393402 24.302221
22 0 3 0.053000 23.303465 21.641869 24.518143
23 0 3 0.053000 24.633877 21.674374 24.122108
24 0 2 0.248100 22.390942 20.191814 23.190224
25 0 3 0.053000 21.957674 20.282721 23.575565
26 0 3 0.053000 23.339287 20.332970 23.214649
27 0 3 0.053000 21.720638 19.577297 22.661106
28 0 2 0.248100 21.476475 19.850533 22.549511
29 0 3 0.053000 21.165802 19.797113 22.309942
30 0 3 0.053000 20.480261 19.537407 22.525869
31 0 3 0.053000 21.769531 19.521172 22.098900
32 0 2 0.248100 22.737793 21.002949 23.437971
33 0 3 0.053000 23.498516 21.618652 23.941799
34 0 3 0.053000 21.806917 20.894541 23.464342
35 0 3 0.053000 23.066021 20.871914 23.019831
36 0 4 -1.000000 25.148521 21.935564 24.406572
37 0 1 -0.628400 29.230843 20.595047 23.311062
38 0 2 0.248100 30.309250 21.336102 24.074364
39 0 3 0.053000 30.671566 21.393402 24.302221
40 0 3 0.053000 29.971725 21.641869 24.518143
41 0 3 0.053000 31.302139 21.674374 24.122108
42 0 2 0.248100 29.059202 20.191814 23.190224
43 0 3 0.053000 28.625935 20.282721 23.575565
44 0 3 0.053000 30.007545 20.332970 23.214649
45 0 3 0.053000 28.388901 19.577297 22.661106
46 0 2 0.248100 28.144733 19.850533 22.549511
47 0 3 0.053000 27.834064 19.797113 22.309942
48 0 3 0.053000 27.148521 19.537407 22.525869
49 0 3 0.053000 28.437794 19.521172 22.098900
50 0 2 0.248100 29.406055 21.002949 23.437971
51 0 3 0.053000 30.166779 21.618652 23.941799
52 0 3 0.053000 28.475178 20.894541 23.464342
53 0 3 0.053000 29.734283 20.871914 23.019831
54 0 4 -1.000000 31.816784 21.935564 24.406572
55 0 1 -0.628400 35.899105 20.595047 23.311062
56 0 2 0.248100 36.977509 21.336102 24.074364
57 0 3 0.053000 37.339828 21.393402 24.302221
58 0 3 0.053000 36.639988 21.641869 24.518143
59 0 3 0.053000 37.970402 21.674374 24.122108
60 0 2 0.248100 35.727463 20.191814 23.190224
61 0 3 0.053000 35.294197 20.282721 23.575565
62 0 3 0.053000 36.675808 20.332970 23.214649
63 0 3 0.053000 35.057159 19.577297 22.661106
64 0 2 0.248100 34.812996 19.850533 22.549511
65 0 3 0.053000 34.502323 19.797113 22.309942
66 0 3 0.053000 33.816784 19.537407 22.525869
67 0 3 0.053000 35.106056 19.521172 22.098900
68 0 2 0.248100 36.074318 21.002949 23.437971
69 0 3 0.053000 36.835041 21.618652 23.941799
70 0 3 0.053000 35.143440 20.894541 23.464342
71 0 3 0.053000 36.402542 20.871914 23.019831
72 0 4 -1.000000 38.485043 21.935564 24.406572
73 0 1 -0.628400 42.567368 20.595047 23.311062
74 0 2 0.248100 43.645771 21.336102 24.074364
75 0 3 0.053000 44.008087 21.393402 24.302221
76 0 3 0.053000 43.308247 21.641869 24.518143
77 0 3 0.053000 44.638660 21.674374 24.122108
78 0 2 0.248100 42.395725 20.191814 23.190224
79 0 3 0.053000 41.962456 20.282721 23.575565
80 0 3 0.053000 43.344070 20.332970 23.214649
81 0 3 0.053000 41.725422 19.577297 22.661106
82 0 2 0.248100 41.481258 19.850533 22.549511
83 0 3 0.053000 41.170586 19.797113 22.309942
84 0 3 0.053000 40.485043 19.537407 22.525869
85 0 3 0.053000 41.774315 19.521172 22.098900
86 0 2 0.248100 42.742577 21.002949 23.437971
87 0 3 0.053000 43.503300 21.618652 23.941799
88 0 3 0.053000 41.811699 20.894541 23.464342
89 0 3 0.053000 43.070805 20.871914 23.019831
90 0 4 -1.000000 45.153305 21.935564 24.406572
91 0 1 -0.628400 15.894321 25.009438 23.311062
92 0 2 0.248100 16.972727 25.750494 24.074364
93 0 3 0.053000 17.335043 25.807793 24.302221
94 0 3 0.053000 16.635204 26.056259 24.518143
95 0 3 0.053000 17.965616 26.088766 24.122108
96 0 2 0.248100 15.722680 24.606207 23.190224
97 0 3 0.053000 15.289413 24.697113 23.575565
98 0 3 0.053000 16.671024 24.747360 23.214649
99 0 3 0.053000 15.052378 23.991688 22.661106
100 0 2 0.248100 14.808212 24.264925 22.549511
101 0 3 0.053000 14.497541 24.211506 22.309942
102 0 3 0.053000 13.811999 23.951799 22.525869
103 0 3 0.053000 15.101271 23.935564 22.098900
104 0 2 0.248100 16.069532 25.417339 23.437971
105 0 3 0.053000 16.830257 26.033043 23.941799
106 0 3 0.053000 15.138657 25.308933 23.464342
107 0 3 0.053000 16.397760 25.286304 23.019831
108 0 4 -1.000000 18.480261 26.349957 24.406572
109 0 1 -0.628400 22.562584 25.009438 23.311062
110 0 2 0.248100 23.640987 25.750494 24.074364
111 0 3 0.053000 24.003304 25.807793 24.302221
112 0 3 0.053000 23.303465 26.056259 24.518143
113 0 3 0.053000 24.633877 26.088766 24.122108
114 0 2 0.248100 22.390942 24.606207 23.190224
115 0 3 0.053000 21.957674 24.697113 23.575565
116 0 3 0.053000 23.339287 24.747360 23.214649
117 0 3 0.053000 21.720638 23.991688 22.661106
118 0 2 0.248100 21.476475 24.264925 22.549511
119 0 3 0.053000 21.165802 24.211506 22.309942
120 0 3 0.053000 20.480261 23.951799 22.525869
121 0 3 0.053000 21.769531 23.935564 22.098900
122 0 2 0.248100 22.737793 25.417339 23.437971
123 0 3 0.053000 23.498516 26.033043 23.941799
124 0 3 0.053000 21.806917 25.308933 23.464342
125 0 3 0.053000 23.066021 25.286304 23.019831
126 0 4 -1.000000 25.148521 26.349957 24.406572
127 0 1 -0.628400 29.230843 25.009438 23.311062
128 0 2 0.248100 30.309250 25.750494 24.074364
129 0 3 0.053000 30.671566 25.807793 24.302221
130 0 3 0.053000 29.971725 26.056259 24.518143
131 0 3 0.053000 31.302139 26.088766 24.122108
132 0 2 0.248100 29.059202 24.606207 23.190224
133 0 3 0.053000 28.625935 24.697113 23.575565
134 0 3 0.053000 30.007545 24.747360 23.214649
135 0 3 0.053000 28.388901 23.991688 22.661106
136 0 2 0.248100 28.144733 24.264925 22.549511
137 0 3 0.053000 27.834064 24.211506 22.309942
138 0 3 0.053000 27.148521 23.951799 22.525869
139 0 3 0.053000 28.437794 23.935564 22.098900
140 0 2 0.248100 29.406055 25.417339 23.437971
141 0 3 0.053000 30.166779 26.033043 23.941799
142 0 3 0.053000 28.475178 25.308933 23.464342
143 0 3 0.053000 29.734283 25.286304 23.019831
144 0 4 -1.000000 31.816784 26.349957 24.406572
145 0 1 -0.628400 35.899105 25.009438 23.311062
146 0 2 0.248100 36.977509 25.750494 24.074364
147 0 3 0.053000 37.339828 25.807793 24.302221
148 0 3 0.053000 36.639988 26.056259 24.518143
149 0 3 0.053000 37.970402 26.088766 24.122108
150 0 2 0.248100 35.727463 24.606207 23.190224
151 0 3 0.053000 35.294197 24.697113 23.575565
152 0 3 0.053000 36.675808 24.747360 23.214649
153 0 3 0.053000 35.057159 23.991688 22.661106
154 0 2 0.248100 34.812996 24.264925 22.549511
155 0 3 0.053000 34.502323 24.211506 22.309942
156 0 3 0.053000 33.816784 23.951799 22.525869
157 0 3 0.053000 35.106056 23.935564 22.098900
158 0 2 0.248100 36.074318 25.417339 23.437971
159 0 3 0.053000 36.835041 26.033043 23.941799
160 0 3 0.053000 35.143440 25.308933 23.464342
161 0 3 0.053000 36.402542 25.286304 23.019831
162 0 4 -1.000000 38.485043 26.349957 24.406572
163 0 1 -0.628400 42.567368 25.009438 23.311062
164 0 2 0.248100 43.645771 25.750494 24.074364
165 0 3 0.053000 44.008087 25.807793 24.302221
166 0 3 0.053000 43.308247 26.056259 24.518143
167 0 3 0.053000 44.638660 26.088766 24.122108
168 0 2 0.248100 42.395725 24.606207 23.190224
169 0 3 0.053000 41.962456 24.697113 23.575565
170 0 3 0.053000 43.344070 24.747360 23.214649
171 0 3 0.053000 41.725422 23.991688 22.661106
172 0 2 0.248100 41.481258 24.264925 22.549511
173 0 3 0.053000 41.170586 24.211506 22.309942
174 0 3 0.053000 40.485043 23.951799 22.525869
175 0 3 0.053000 41.774315 23.935564 22.098900
176 0 2 0.248100 42.742577 25.417339 23.437971
177 0 3 0.053000 43.503300 26.033043 23.941799
178 0 3 0.053000 41.811699 25.308933 23.464342
179 0 3 0.053000 43.070805 25.286304 23.019831
180 0 4 -1.000000 45.153305 26.349957 24.406572
181 0 1 -0.628400 15.894321 29.423830 23.311062
182 0 2 0.248100 16.972727 30.164886 24.074364
183 0 3 0.053000 17.335043 30.222185 24.302221
184 0 3 0.053000 16.635204 30.470652 24.518143
185 0 3 0.053000 17.965616 30.503159 24.122108
186 0 2 0.248100 15.722680 29.020599 23.190224
187 0 3 0.053000 15.289413 29.111506 23.575565
188 0 3 0.053000 16.671024 29.161755 23.214649
189 0 3 0.053000 15.052378 28.406080 22.661106
190 0 2 0.248100 14.808212 28.679317 22.549511
191 0 3 0.053000 14.497541 28.625896 22.309942
192 0 3 0.053000 13.811999 28.366192 22.525869
193 0 3 0.053000 15.101271 28.349957 22.098900
194 0 2 0.248100 16.069532 29.831732 23.437971
195 0 3 0.053000 16.830257 30.447435 23.941799
196 0 3 0.053000 15.138657 29.723324 23.464342
197 0 3 0.053000 16.397760 29.700697 23.019831
198 0 4 -1.000000 18.480261 30.764347 24.406572
199 0 1 -0.628400 22.562584 29.423830 23.311062
200 0 2 0.248100 23.640987 30.164886 24.074364
201 0 3 0.053000 24.003304 30.222185 24.302221
202 0 3 0.053000 23.303465 30.470652 24.518143
203 0 3 0.053000 24.633877 30.503159 24.122108
204 0 2 0.248100 22.390942 29.020599 23.190224
205 0 3 0.053000 21.957674 29.111506 23.575565
206 0 3 0.053000 23.339287 29.161755 23.214649
207 0 3 0.053000 21.720638 28.406080 22.661106
208 0 2 0.248100 21.476475 28.679317 22.549511
209 0 3 0.053000 21.165802 28.625896 22.309942
210 0 3 0.053000 20.480261 28.366192 22.525869
211 0 3 0.053000 21.769531 28.349957 22.098900
212 0 2 0.248100 22.737793 29.831732 23.437971
213 0 3 0.053000 23.498516 30.447435 23.941799
214 0 3 0.053000 21.806917 29.723324 23.464342
215 0 3 0.053000 23.066021 29.700697 23.019831
216 0 4 -1.000000 25.148521 30.764347 24.406572
217 0 1 -0.628400 29.230843 29.423830 23.311062
218 0 2 0.248100 30.309250 30.164886 24.074364
219 0 3 0.053000 30.671566 30.222185 24.302221
220 0 3 0.053000 29.971725 30.470652 24.518143
221 0 3 0.053000 31.302139 30.503159 24.122108
222 0 2 0.248100 29.059202 29.020599 23.190224
223 0 3 0.053000 28.625935 29.111506 23.575565
224 0 3 0.053000 30.007545 29.161755 23.214649
225 0 3 0.053000 28.388901 28.406080 22.661106
226 0 2 0.248100 28.144733 28.679317 22.549511
227 0 3 0.053000 27.834064 28.625896 22.309942
228 0 3 0.053000 27.148521 28.366192 22.525869
229 0 3 0.053000 28.437794 28.349957 22.098900
230 0 2 0.248100 29.406055 29.831732 23.437971
231 0 3 0.053000 30.166779 30.447435 23.941799
232 0 3 0.053000 28.475178 29.723324 23.464342
233 0 3 0.053000 29.734283 29.700697 23.019831
234 0 4 -1.000000 31.816784 30.764347 24.406572
235 0 1 -0.628400 35.899105 29.423830 23.311062
236 0 2 0.248100 36.977509 30.164886 24.074364
237 0 3 0.053000 37.339828 30.222185 24.302221
238 0 3 0.053000 36.639988 30.470652 24.518143
239 0 3 0.053000 37.970402 30.503159 24.122108
240 0 2 0.248100 35.727463 29.020599 23.190224
241 0 3 0.053000 35.294197 29.111506 23.575565
242 0 3 0.053000 36.675808 29.161755 23.214649
243 0 3 0.053000 35.057159 28.406080 22.661106
244 0 2 0.248100 34.812996 28.679317 22.549511
245 0 3 0.053000 34.502323 28.625896 22.309942
246 0 3 0.053000 33.816784 28.366192 22.525869
247 0 3 0.053000 35.106056 28.349957 22.098900
248 0 2 0.248100 36.074318 29.831732 23.437971
249 0 3 0.053000 36.835041 30.447435 23.941799
250 0 3 0.053000 35.143440 29.723324 23.464342
251 0 3 0.053000 36.402542 29.700697 23.019831
252 0 4 -1.000000 38.485043 30.764347 24.406572
253 0 1 -0.628400 42.567368 29.423830 23.311062
254 0 2 0.248100 43.645771 30.164886 24.074364
255 0 3 0.053000 44.008087 30.222185 24.302221
256 0 3 0.053000 43.308247 30.470652 24.518143
257 0 3 0.053000 44.638660 30.503159 24.122108
258 0 2 0.248100 42.395725 29.020599 23.190224
259 0 3 0.053000 41.962456 29.111506 23.575565
260 0 3 0.053000 43.344070 29.161755 23.214649
261 0 3 0.053000 41.725422 28.406080 22.661106
262 0 2 0.248100 41.481258 28.679317 22.549511
263 0 3 0.053000 41.170586 28.625896 22.309942
264 0 3 0.053000 40.485043 28.366192 22.525869
265 0 3 0.053000 41.774315 28.349957 22.098900
266 0 2 0.248100 42.742577 29.831732 23.437971
267 0 3 0.053000 43.503300 30.447435 23.941799
268 0 3 0.053000 41.811699 29.723324 23.464342
269 0 3 0.053000 43.070805 29.700697 23.019831
270 0 4 -1.000000 45.153305 30.764347 24.406572
271 0 1 -0.628400 15.894321 33.838223 23.311062
272 0 2 0.248100 16.972727 34.579277 24.074364
273 0 3 0.053000 17.335043 34.636578 24.302221
274 0 3 0.053000 16.635204 34.885044 24.518143
275 0 3 0.053000 17.965616 34.917549 24.122108
276 0 2 0.248100 15.722680 33.434990 23.190224
277 0 3 0.053000 15.289413 33.525894 23.575565
278 0 3 0.053000 16.671024 33.576145 23.214649
279 0 3 0.053000 15.052378 32.820473 22.661106
280 0 2 0.248100 14.808212 33.093708 22.549511
281 0 3 0.053000 14.497541 33.040291 22.309942
282 0 3 0.053000 13.811999 32.780582 22.525869
283 0 3 0.053000 15.101271 32.764347 22.098900
284 0 2 0.248100 16.069532 34.246124 23.437971
285 0 3 0.053000 16.830257 34.861828 23.941799
286 0 3 0.053000 15.138657 34.137714 23.464342
287 0 3 0.053000 16.397760 34.115089 23.019831
288 0 4 -1.000000 18.480261 35.178741 24.406572
289 0 1 -0.628400 22.562584 33.838223 23.311062
290 0 2 0.248100 23.640987 34.579277 24.074364
291 0 3 0.053000 24.003304 34.636578 24.302221
292 0 3 0.053000 23.303465 34.885044 24.518143
293 0 3 0.053000 24.633877 34.917549 24.122108
294 0 2 0.248100 22.390942 33.434990 23.190224
295 0 3 0.053000 21.957674 33.525894 23.575565
296 0 3 0.053000 23.339287 33.576145 23.214649
297 0 3 0.053000 21.720638 32.820473 22.661106
298 0 2 0.248100 21.476475 33.093708 22.549511
299 0 3 0.053000 21.165802 33.040291 22.309942
300 0 3 0.053000 20.480261 32.780582 22.525869
301 0 3 0.053000 21.769531 32.764347 22.098900
302 0 2 0.248100 22.737793 34.246124 23.437971
303 0 3 0.053000 23.498516 34.861828 23.941799
304 0 3 0.053000 21.806917 34.137714 23.464342
305 0 3 0.053000 23.066021 34.115089 23.019831
306 0 4 -1.000000 25.148521 35.178741 24.406572
307 0 1 -0.628400 29.230843 33.838223 23.311062
308 0 2 0.248100 30.309250 34.579277 24.074364
309 0 3 0.053000 30.671566 34.636578 24.302221
310 0 3 0.053000 29.971725 34.885044 24.518143
311 0 3 0.053000 31.302139 34.917549 24.122108
312 0 2 0.248100 29.059202 33.434990 23.190224
313 0 3 0.053000 28.625935 33.525894 23.575565
314 0 3 0.053000 30.007545 33.576145 23.214649
315 0 3 0.053000 28.388901 32.820473 22.661106
316 0 2 0.248100 28.144733 33.093708 22.549511
317 0 3 0.053000 27.834064 33.040291 22.309942
318 0 3 0.053000 27.148521 32.780582 22.525869
319 0 3 0.053000 28.437794 32.764347 22.098900
320 0 2 0.248100 29.406055 34.246124 23.437971
321 0 3 0.053000 30.166779 34.861828 23.941799
322 0 3 0.053000 28.475178 34.137714 23.464342
323 0 3 0.053000 29.734283 34.115089 23.019831
324 0 4 -1.000000 31.816784 35.178741 24.406572
325 0 1 -0.628400 35.899105 33.838223 23.311062
326 0 2 0.248100 36.977509 34.579277 24.074364
327 0 3 0.053000 37.339828 34.636578 24.302221
328 0 3 0.053000 36.639988 34.885044 24.518143
329 0 3 0.053000 37.970402 34.917549 24.122108
330 0 2 0.248100 35.727463 33.434990 23.190224
331 0 3 0.053000 35.294197 33.525894 23.575565
332 0 3 0.053000 36.675808 33.576145 23.214649
333 0 3 0.053000 35.057159 32.820473 22.661106
334 0 2 0.248100 34.812996 33.093708 22.549511
335 0 3 0.053000 34.502323 33.040291 22.309942
336 0 3 0.053000 33.816784 32.780582 22.525869
337 0 3 0.053000 35.106056 32.764347 22.098900
338 0 2 0.248100 36.074318 34.246124 23.437971
339 0 3 0.053000 36.835041 34.861828 23.941799
340 0 3 0.053000 35.143440 34.137714 23.464342
341 0 3 0.053000 36.402542 34.115089 23.019831
342 0 4 -1.000000 38.485043 35.178741 24.406572
343 0 1 -0.628400 42.567368 33.838223 23.311062
344 0 2 0.248100 43.645771 34.579277 24.074364
345 0 3 0.053000 44.008087 34.636578 24.302221
346 0 3 0.053000 43.308247 34.885044 24.518143
347 0 3 0.053000 44.638660 34.917549 24.122108
348 0 2 0.248100 42.395725 33.434990 23.190224
349 0 3 0.053000 41.962456 33.525894 23.575565
350 0 3 0.053000 43.344070 33.576145 23.214649
351 0 3 0.053000 41.725422 32.820473 22.661106
352 0 2 0.248100 41.481258 33.093708 22.549511
353 0 3 0.053000 41.170586 33.040291 22.309942
354 0 3 0.053000 40.485043 32.780582 22.525869
355 0 3 0.053000 41.774315 32.764347 22.098900
356 0 2 0.248100 42.742577 34.246124 23.437971
357 0 3 0.053000 43.503300 34.861828 23.941799
358 0 3 0.053000 41.811699 34.137714 23.464342
359 0 3 0.053000 43.070805 34.115089 23.019831
360 0 4 -1.000000 45.153305 35.178741 24.406572
361 0 1 -0.628400 15.894321 38.252617 23.311062
362 0 2 0.248100 16.972727 38.993668 24.074364
363 0 3 0.053000 17.335043 39.050972 24.302221
364 0 3 0.053000 16.635204 39.299438 24.518143
365 0 3 0.053000 17.965616 39.331940 24.122108
366 0 2 0.248100 15.722680 37.849380 23.190224
367 0 3 0.053000 15.289413 37.940289 23.575565
368 0 3 0.053000 16.671024 37.990540 23.214649
369 0 3 0.053000 15.052378 37.234863 22.661106
370 0 2 0.248100 14.808212 37.508102 22.549511
371 0 3 0.053000 14.497541 37.454681 22.309942
372 0 3 0.053000 13.811999 37.194977 22.525869
373 0 3 0.053000 15.101271 37.178741 22.098900
374 0 2 0.248100 16.069532 38.660515 23.437971
375 0 3 0.053000 16.830257 39.276218 23.941799
376 0 3 0.053000 15.138657 38.552109 23.464342
377 0 3 0.053000 16.397760 38.529480 23.019831
378 0 4 -1.000000 18.480261 39.593132 24.406572
379 0 1 -0.628400 22.562584 38.252617 23.311062
380 0 2 0.248100 23.640987 38.993668 24.074364
381 0 3 0.053000 24.003304 39.050972 24.302221
382 0 3 0.053000 23.303465 39.299438 24.518143
383 0 3 0.053000 24.633877 39.331940 24.122108
384 0 2 0.248100 22.390942 37.849380 23.190224
385 0 3 0.053000 21.957674 37.940289 23.575565
386 0 3 0.053000 23.339287 37.990540 23.214649
387 0 3 0.053000 21.720638 37.234863 22.661106
388 0 2 0.248100 21.476475 37.508102 22.549511
389 0 3 0.053000 21.165802 37.454681 22.309942
390 0 3 0.053000 20.480261 37.194977 22.525869
391 0 3 0.053000 21.769531 37.178741 22.098900
392 0 2 0.248100 22.737793 38.660515 23.437971
393 0 3 0.053000 23.498516 39.276218 23.941799
394 0 3 0.053000 21.806917 38.552109 23.464342
395 0 3 0.053000 23.066021 38.529480 23.019831
396 0 4 -1.000000 25.148521 39.593132 24.406572
397 0 1 -0.628400 29.230843 38.252617 23.311062
398 0 2 0.248100 30.309250 38.993668 24.074364
399 0 3 0.053000 30.671566 39.050972 24.302221
400 0 3 0.053000 29.971725 39.299438 24.518143
401 0 3 0.053000 31.302139 39.331940 24.122108
402 0 2 0.248100 29.059202 37.849380 23.190224
403 0 3 0.053000 28.625935 37.940289 23.575565
404 0 3 0.053000 30.007545 37.990540 23.214649
405 0 3 0.053000 28.388901 37.234863 22.661106
406 0 2 0.248100 28.144733 37.508102 22.549511
407 0 3 0.053000 27.834064 37.454681 22.309942
408 0 3 0.053000 27.148521 37.194977 22.525869
409 0 3 0.053000 28.437794 37.178741 22.098900
410 0 2 0.248100 29.406055 38.660515 23.437971
411 0 3 0.053000 30.166779 39.276218 23.941799
412 0 3 0.053000 28.475178 38.552109 23.464342
413 0 3 0.053000 29.734283 38.529480 23.019831
414 0 4 -1.000000 31.816784 39.593132 24.406572
415 0 1 -0.628400 35.899105 38.252617 23.311062
416 0 2 0.248100 36.977509 38.993668 24.074364
417 0 3 0.053000 37.339828 39.050972 24.302221
418 0 3 0.053000 36.639988 39.299438 24.518143
419 0 3 0.053000 37.970402 39.331940 24.122108
420 0 2 0.248100 35.727463 37.849380 23.190224
421 0 3 0.053000 35.294197 37.940289 23.575565
422 0 3 0.053000 36.675808 37.990540 23.214649
423 0 3 0.053000 35.057159 37.234863 22.661106
424 0 2 0.248100 34.812996 37.508102 22.549511
425 0 3 0.053000 34.502323 37.454681 22.309942
426 0 3 0.053000 33.816784 37.194977 22.525869
427 0 3 0.053000 35.106056 37.178741 22.098900
428 0 2 0.248100 36.074318 38.660515 23.437971
429 0 3 0.053000 36.835041 39.276218 23.941799
430 0 3 0.053000 35.143440 38.552109 23.464342
431 0 3 0.053000 36.402542 38.529480 23.019831
432 0 4 -1.000000 38.485043 39.593132 24.406572
433 0 1 -0.628400 42.567368 38.252617 23.311062
434 0 2 0.248100 43.645771 38.993668 24.074364
435 0 3 0.053000 44.008087 39.050972 24.302221
436 0 3 0.053000 43.308247 39.299438 24.518143
437 0 3 0.053000 44.638660 39.331940 24.122108
438 0 2 0.248100 42.395725 37.849380 23.190224
439 0 3 0.053000 41.962456 37.940289 23.575565
440 0 3 0.053000 43.344070 37.990540 23.214649
441 0 3 0.053000 41.725422 37.234863 22.661106
442 0 2 0.248100 41.481258 37.508102 22.549511
443 0 3 0.053000 41.170586 37.454681 22.309942
444 0 3 0.053000 40.485043 37.194977 22.525869
445 0 3 0.053000 41.774315 37.178741 22.098900
446 0 2 0.248100 42.742577 38.660515 23.437971
447 0 3 0.053000 43.503300 39.276218 23.941799
448 0 3 0.053000 41.811699 38.552109 23.464342
449 0 3 0.053000 43.070805 38.529480 23.019831
450 0 4 -1.000000 45.153305 39.593132 24.406572
451 0 1 -0.628400 15.894321 20.595047 27.730305
452 0 2 0.248100 16.972727 21.336102 28.493607
453 0 3 0.053000 17.335043 21.393402 28.721464
454 0 3 0.053000 16.635204 21.641869 28.937386
455 0 3 0.053000 17.965616 21.674374 28.541351
456 0 2 0.248100 15.722680 20.191814 27.609465
457 0 3 0.053000 15.289413 20.282721 27.994806
458 0 3 0.053000 16.671024 20.332970 27.633892
459 0 3 0.053000 15.052378 19.577297 27.080349
460 0 2 0.248100 14.808212 19.850533 26.968754
461 0 3 0.053000 14.497541 19.797113 26.729183
462 0 3 0.053000 13.811999 19.537407 26.945112
463 0 3 0.053000 15.101271 19.521172 26.518143
464 0 2 0.248100 16.069532 21.002949 27.857212
465 0 3 0.053000 16.830257 21.618652 28.361042
466 0 3 0.053000 15.138657 20.894541 27.883583
467 0 3 0.053000 16.397760 20.871914 27.439072
468 0 4 -1.000000 18.480261 21.935564 28.825815
469 0 1 -0.628400 22.562584 20.595047 27.730305
470 0 2 0.248100 23.640987 21.336102 28.493607
471 0 3 0.053000 24.003304 21.393402 28.721464
472 0 3 0.053000 23.303465 21.641869 28.937386
473 0 3 0.053000 24.633877 21.674374 28.541351
474 0 2 0.248100 22.390942 20.191814 27.609465
475 0 3 0.053000 21.957674 20.282721 27.994806
476 0 3 0.053000 23.339287 20.332970 27.633892
477 0 3 0.053000 21.720638 19.577297 27.080349
478 0 2 0.248100 21.476475 19.850533 26.968754
479 0 3 0.053000 21.165802 19.797113 26.729183
480 0 3 0.053000 20.480261 19.537407 26.945112
481 0 3 0.053000 21.769531 19.521172 26.518143
482 0 2 0.248100 22.737793 21.002949 27.857212
483 0 3 0.053000 23.498516 21.618652 28.361042
484 0 3 0.053000 21.806917 20.894541 27.883583
485 0 3 0.053000 23.066021 20.871914 27.439072
486 0 4 -1.000000 25.148521 21.935564 28.825815
487 0 1 -0.628400 29.230843 20.595047 27.730305
488 0 2 0.248100 30.309250 21.336102 28.493607
489 0 3 0.053000 30.671566 21.393402 28.721464
490 0 3 0.053000 29.971725 21.641869 28.937386
491 0 3 0.053000 31.302139 21.674374 28.541351
492 0 2 0.248100 29.059202 20.191814 27.609465
493 0 3 0.053000 28.625935 20.282721 27.994806
494 0 3 0.053000 30.007545 20.332970 27.633892
495 0 3 0.053000 28.388901 19.577297 27.080349
496 0 2 0.248100 28.144733 19.850533 26.968754
497 0 3 0.053000 27.834064 19.797113 26.729183
498 0 3 0.053000 27.148521 19.537407 26.945112
499 0 3 0.053000 28.437794 19.521172 26.518143
500 0 2 0.248100 29.406055 21.002949 27.857212
501 0 3 0.053000 30.166779 21.618652 28.361042
502 0 3 0.053000 28.475178 20.894541 27.883583
503 0 3 0.053000 29.734283 20.871914 27.439072
504 0 4 -1.000000 31.816784 21.935564 28.825815
505 0 1 -0.628400 35.899105 20.595047 27.730305
506 0 2 0.248100 36.977509 21.336102 28.493607
507 0 3 0.053000 37.339828 21.393402 28.721464
508 0 3 0.053000 36.639988 21.641869 28.937386
509 0 3 0.053000 37.970402 21.674374 28.541351
510 0 2 0.248100 35.727463 20.191814 27.609465
511 0 3 0.053000 35.294197 20.282721 27.994806
512 0 3 0.053000 36.675808 20.332970 27.633892
513 0 3 0.053000 35.057159 19.577297 27.080349
514 0 2 0.248100 34.812996 19.850533 26.968754
515 0 3 0.053000 34.502323 19.797113 26.729183
516 0 3 0.053000 33.816784 19.537407 26.945112
517 0 3 0.053000 35.106056 19.521172 26.518143
518 0 2 0.248100 36.074318 21.002949 27.857212
519 0 3 0.053000 36.835041 21.618652 28.361042
520 0 3 0.053000 35.143440 20.894541 27.883583
521 0 3 0.053000 36.402542 20.871914 27.439072
522 0 4 -1.000000 38.485043 21.935564 28.825815
523 0 1 -0.628400 42.567368 20.595047 27.730305
524 0 2 0.248100 43.645771 21.336102 28.493607
525 0 3 0.053000 44.008087 21.393402 28.721464
526 0 3 0.053000 43.308247 21.641869 28.937386
527 0 3 0.053000 44.638660 21.674374 28.541351
528 0 2 0.248100 42.395725 20.191814 27.609465
529 0 3 0.053000 41.962456 20.282721 27.994806
530 0 3 0.053000 43.344070 20.332970 27.633892
531 0 3 0.053000 41.725422 19.577297 27.080349
532 0 2 0.248100 41.481258 19.850533 26.968754
533 0 3 0.053000 41.170586 19.797113 26.729183
534 0 3 0.053000 40.485043 19.537407 26.945112
535 0 3 0.053000 41.774315 19.521172 26.518143
536 0 2 0.248100 42.742577 21.002949 27.857212
537 0 3 0.053000 43.503300 21.618652 28.361042
538 0 3 0.053000 41.811699 20.894541 27.883583
539 0 3 0.053000 43.070805 20.871914 27.439072
540 0 4 -1.000000 45.153305 21.935564 28.825815
541 0 1 -0.628400 15.894321 25.009438 27.730305
542 0 2 0.248100 16.972727 25.750494 28.493607
543 0 3 0.053000 17.335043 25.807793 28.721464
544 0 3 0.053000 16.635204 26.056259 28.937386
545 0 3 0.053000 17.965616 26.088766 28.541351
546 0 2 0.248100 15.722680 24.606207 27.609465
547 0 3 0.053000 15.289413 24.697113 27.994806
548 0 3 0.053000 16.671024 24.747360 27.633892
549 0 3 0.053000 15.052378 23.991688 27.080349
550 0 2 0.248100 14.808212 24.264925 26.968754
551 0 3 0.053000 14.497541 24.211506 26.729183
552 0 3 0.053000 13.811999 23.951799 26.945112
553 0 3 0.053000 15.101271 23.935564 26.518143
554 0 2 0.248100 16.069532 25.417339 27.857212
555 0 3 0.053000 16.830257 26.033043 28.361042
556 0 3 0.053000 15.138657 25.308933 27.883583
557 0 3 0.053000 16.397760 25.286304 27.439072
558 0 4 -1.000000 18.480261 26.349957 28.825815
559 0 1 -0.628400 22.562584 25.009438 27.730305
560 0 2 0.248100 23.640987 25.750494 28.493607
561 0 3 0.053000 24.003304 25.807793 28.721464
562 0 3 0.053000 23.303465 26.056259 28.937386
563 0 3 0.053000 24.633877 26.088766 28.541351
564 0 2 0.248100 22.390942 24.606207 27.609465
565 0 3 0.053000 21.957674 24.697113 27.994806
566 0 3 0.053000 23.339287 24.747360 27.633892
567 0 3 0.053000 21.720638 23.991688 27.080349
568 0 2 0.248100 21.476475 24.264925 26.968754
569 0 3 0.053000 21.165802 24.211506 26.729183
570 0 3 0.053000 20.480261 23.951799 26.945112
571 0 3 0.053000 21.769531 23.935564 26.518143
572 0 2 0.248100 22.737793 25.417339 27.857212
573 0 3 0.053000 23.498516 26.033043 28.361042
574 0 3 0.053000 21.806917 25.308933 27.883583
575 0 3 0.053000 23.066021 25.286304 27.439072
576 0 4 -1.000000 25.148521 26.349957 28.825815
577 0 1 -0.628400 29.230843 25.009438 27.730305
578 0 2 0.248100 30.309250 25.750494 28.493607
579 0 3 0.053000 30.671566 25.807793 28.721464
580 0 3 0.053000 29.971725 26.056259 28.937386
581 0 3 0.053000 31.302139 26.088766 28.541351
582 0 2 0.248100 29.059202 24.606207 27.609465
583 0 3 0.053000 28.625935 24.697113 27.994806
584 0 3 0.053000 30.007545 24.747360 27.633892
585 0 3 0.053000 28.388901 23.991688 27.080349
586 0 2 0.248100 28.144733 24.264925 26.968754
587 0 3 0.053000 27.834064 24.211506 26.729183
588 0 3 0.053000 27.148521 23.951799 26.945112
589 0 3 0.053000 28.437794 23.935564 26.518143
590 0 2 0.248100 29.406055 25.417339 27.857212
591 0 3 0.053000 30.166779 26.033043 28.361042
592 0 3 0.053000 28.475178 25.308933 27.883583
593 0 3 0.053000 29.734283 25.286304 27.439072
594 0 4 -1.000000 31.816784 26.349957 28.825815
595 0 1 -0.628400 35.899105 25.009438 27.730305
596 0 2 0.248100 36.977509 25.750494 28.493607
597 0 3 0.053000 37.339828 25.807793 28.721464
598 0 3 0.053000 36.639988 26.056259 28.937386
599 0 3 0.053000 37.970402 26.088766 28.541351
600 0 2 0.248100 35.727463 24.606207 27.609465
601 0 3 0.053000 35.294197 24.697113 27.994806
602 0 3 0.053000 36.675808 24.747360 27.633892
603 0 3 0.053000 35.057159 23.991688 27.080349
604 0 2 0.248100 34.812996 24.264925 26.968754
605 0 3 0.053000 34.502323 24.211506 26.729183
606 0 3 0.053000 33.816784 23.951799 26.945112
607 0 3 0.053000 35.106056 23.935564 26.518143
608 0 2 0.248100 36.074318 25.417339 27.857212
609 0 3 0.053000 36.835041 26.033043 28.361042
610 0 3 0.053000 35.143440 25.308933 27.883583
611 0 3 0.053000 36.402542 25.286304 27.439072
612 0 4 -1.000000 38.485043 26.349957 28.825815
613 0 1 -0.628400 42.567368 25.009438 27.730305
614 0 2 0.248100 43.645771 25.750494 28.493607
615 0 3 0.053000 44.008087 25.807793 28.721464
616 0 3 0.053000 43.308247 26.056259 28.937386
617 0 3 0.053000 44.638660 26.088766 28.541351
618 0 2 0.248100 42.395725 24.606207 27.609465
619 0 3 0.053000 41.962456 24.697113 27.994806
620 0 3 0.053000 43.344070 24.747360 27.633892
621 0 3 0.053000 41.725422 23.991688 27.080349
622 0 2 0.248100 41.481258 24.264925 26.968754
623 0 3 0.053000 41.170586 24.211506 26.729183
624 0 3 0.053000 40.485043 23.951799 26.945112
625 0 3 0.053000 41.774315 23.935564 26.518143
626 0 2 0.248100 42.742577 25.417339 27.857212
627 0 3 0.053000 43.503300 26.033043 28.361042
628 0 3 0.053000 41.811699 25.308933 27.883583
629 0 3 0.053000 43.070805 25.286304 27.439072
630 0 4 -1.000000 45.153305 26.349957 28.825815
631 0 1 -0.628400 15.894321 29.423830 27.730305