LAMMPS data file containing the original structures and the polarizable gold

10080 atoms
6265 bonds
5250 angles
6300 dihedrals
0 impropers

6 atom types
3 bond types
3 angle types
1 dihedral types

-3.000000 62.014999 xlo xhi
-3.000000 61.997501 ylo yhi
-3.000000 45.485813 zlo zhi

Masses

1 14.006700
2 12.011150
3 1.007970
4 79.908997
5 195.960000
6 1.000000

Atoms

1 0 1 -0.628400 12.696358 18.637762 23.601763
2 0 2 0.248100 13.774761 19.378817 24.365065
3 0 3 0.053000 14.137079 19.436117 24.592922
4 0 3 0.053000 13.437239 19.684584 24.808844
5 0 3 0.053000 14.767652 19.717089 24.412809
6 0 2 0.248100 12.524715 18.234529 23.480925
7 0 3 0.053000 12.091448 18.325436 23.866264
8 0 3 0.053000 13.473061 18.375685 23.505350
9 0 3 0.053000 11.854412 17.620012 22.951807
10 0 2 0.248100 11.610249 17.893248 22.840212
11 0 3 0.053000 11.299577 17.839828 22.600643
12 0 3 0.053000 10.614035 17.580122 22.816570
13 0 3 0.053000 11.903306 17.563887 22.389601
14 0 2 0.248100 12.871568 19.045664 23.728672
15 0 3 0.053000 13.632292 19.661366 24.232500
16 0 3 0.053000 11.940691 18.937256 23.755043
17 0 3 0.053000 13.199795 18.914629 23.310532
18 0 4 -1.000000 15.282295 19.978279 24.697273
19 0 1 -0.628400 19.364618 18.637762 23.601763
20 0 2 0.248100 20.443024 19.378817 24.365065
21 0 3 0.053000 20.805340 19.436117 24.592922
22 0 3 0.053000 20.105499 19.684584 24.808844
23 0 3 0.053000 21.435913 19.717089 24.412809
24 0 2 0.248100 19.192976 18.234529 23.480925
25 0 3 0.053000 18.759708 18.325436 23.866264
26 0 3 0.053000 20.141321 18.375685 23.505350
27 0 3 0.053000 18.522675 17.620012 22.951807
28 0 2 0.248100 18.278509 17.893248 22.840212
29 0 3 0.053000 17.967838 17.839828 22.600643
30 0 3 0.053000 17.282295 17.580122 22.816570
31 0 3 0.053000 18.571568 17.563887 22.389601
32 0 2 0.248100 19.539829 19.045664 23.728672
33 0 3 0.053000 20.300552 19.661366 24.232500
34 0 3 0.053000 18.608952 18.937256 23.755043
35 0 3 0.053000 19.868057 18.914629 23.310532
36 0 4 -1.000000 21.950558 19.978279 24.697273
37 0 1 -0.628400 26.032879 18.637762 23.601763
38 0 2 0.248100 27.111284 19.378817 24.365065
39 0 3 0.053000 27.473600 19.436117 24.592922
40 0 3 0.053000 26.773762 19.684584 24.808844
41 0 3 0.053000 28.104174 19.717089 24.412809
42 0 2 0.248100 25.861237 18.234529 23.480925
43 0 3 0.053000 25.427971 18.325436 23.866264
44 0 3 0.053000 26.809582 18.375685 23.505350
45 0 3 0.053000 25.190935 17.620012 22.951807
46 0 2 0.248100 24.946770 17.893248 22.840212
47 0 3 0.053000 24.636099 17.839828 22.600643
48 0 3 0.053000 23.950558 17.580122 22.816570
49 0 3 0.053000 25.239828 17.563887 22.389601
50 0 2 0.248100 26.208090 19.045664 23.728672
51 0 3 0.053000 26.968813 19.661366 24.232500
52 0 3 0.053000 25.277214 18.937256 23.755043
53 0 3 0.053000 26.536318 18.914629 23.310532
54 0 4 -1.000000 28.618818 19.978279 24.697273
55 0 1 -0.628400 32.701141 18.637762 23.601763
56 0 2 0.248100 33.779545 19.378817 24.365065
57 0 3 0.053000 34.141861 19.436117 24.592922
58 0 3 0.053000 33.442024 19.684584 24.808844
59 0 3 0.053000 34.772438 19.717089 24.412809
60 0 2 0.248100 32.529499 18.234529 23.480925
61 0 3 0.053000 32.096230 18.325436 23.866264
62 0 3 0.053000 33.477844 18.375685 23.505350
63 0 3 0.053000 31.859196 17.620012 22.951807
64 0 2 0.248100 31.615032 17.893248 22.840212
65 0 3 0.053000 31.304359 17.839828 22.600643
66 0 3 0.053000 30.618818 17.580122 22.816570
67 0 3 0.053000 31.908091 17.563887 22.389601
68 0 2 0.248100 32.876350 19.045664 23.728672
69 0 3 0.053000 33.637077 19.661366 24.232500
70 0 3 0.053000 31.945475 18.937256 23.755043
71 0 3 0.053000 33.204578 18.914629 23.310532
72 0 4 -1.000000 35.287079 19.978279 24.697273
73 0 1 -0.628400 39.369400 18.637762 23.601763
74 0 2 0.248100 40.447807 19.378817 24.365065
75 0 3 0.053000 40.810123 19.436117 24.592922
76 0 3 0.053000 40.110283 19.684584 24.808844
77 0 3 0.053000 41.440697 19.717089 24.412809
78 0 2 0.248100 39.197762 18.234529 23.480925
79 0 3 0.053000 38.764492 18.325436 23.866264
80 0 3 0.053000 40.146103 18.375685 23.505350
81 0 3 0.053000 38.527458 17.620012 22.951807
82 0 2 0.248100 38.283295 17.893248 22.840212
83 0 3 0.053000 37.972618 17.839828 22.600643
84 0 3 0.053000 37.287079 17.580122 22.816570
85 0 3 0.053000 38.576351 17.563887 22.389601
86 0 2 0.248100 39.544609 19.045664 23.728672
87 0 3 0.053000 40.305336 19.661366 24.232500
88 0 3 0.053000 38.613735 18.937256 23.755043
89 0 3 0.053000 39.872841 18.914629 23.310532
90 0 4 -1.000000 41.955338 19.978279 24.697273
91 0 1 -0.628400 46.037659 18.637762 23.601763
92 0 2 0.248100 47.116066 19.378817 24.365065
93 0 3 0.053000 47.478386 19.436117 24.592922
94 0 3 0.053000 46.778542 19.684584 24.808844
95 0 3 0.053000 48.108955 19.717089 24.412809
96 0 2 0.248100 45.866020 18.234529 23.480925
97 0 3 0.053000 45.432755 18.325436 23.866264
98 0 3 0.053000 46.814362 18.375685 23.505350
99 0 3 0.053000 45.195717 17.620012 22.951807
100 0 2 0.248100 44.951553 17.893248 22.840212
101 0 3 0.053000 44.640884 17.839828 22.600643
102 0 3 0.053000 43.955338 17.580122 22.816570
103 0 3 0.053000 45.244614 17.563887 22.389601
104 0 2 0.248100 46.212875 19.045664 23.728672
105 0 3 0.053000 46.973595 19.661366 24.232500
106 0 3 0.053000 45.281998 18.937256 23.755043
107 0 3 0.053000 46.541100 18.914629 23.310532
108 0 4 -1.000000 48.623604 19.978279 24.697273
109 0 1 -0.628400 12.696358 23.052155 23.601763
110 0 2 0.248100 13.774761 23.793209 24.365065
111 0 3 0.053000 14.137079 23.850510 24.592922
112 0 3 0.053000 13.437239 24.098976 24.808844
113 0 3 0.053000 14.767652 24.131481 24.412809
114 0 2 0.248100 12.524715 22.648922 23.480925
115 0 3 0.053000 12.091448 22.739828 23.866264
116 0 3 0.053000 13.473061 22.790077 23.505350
117 0 3 0.053000 11.854412 22.034405 22.951807
118 0 2 0.248100 11.610249 22.307640 22.840212
119 0 3 0.053000 11.299577 22.254221 22.600643
120 0 3 0.053000 10.614035 21.994514 22.816570
121 0 3 0.053000 11.903306 21.978279 22.389601
122 0 2 0.248100 12.871568 23.460056 23.728672
123 0 3 0.053000 13.632292 24.075758 24.232500
124 0 3 0.053000 11.940691 23.351646 23.755043
125 0 3 0.053000 13.199795 23.329021 23.310532
126 0 4 -1.000000 15.282295 24.392670 24.697273
127 0 1 -0.628400 19.364618 23.052155 23.601763
128 0 2 0.248100 20.443024 23.793209 24.365065
129 0 3 0.053000 20.805340 23.850510 24.592922
130 0 3 0.053000 20.105499 24.098976 24.808844
131 0 3 0.053000 21.435913 24.131481 24.412809
132 0 2 0.248100 19.192976 22.648922 23.480925
133 0 3 0.053000 18.759708 22.739828 23.866264
134 0 3 0.053000 20.141321 22.790077 23.505350
135 0 3 0.053000 18.522675 22.034405 22.951807
136 0 2 0.248100 18.278509 22.307640 22.840212
137 0 3 0.053000 17.967838 22.254221 22.600643
138 0 3 0.053000 17.282295 21.994514 22.816570
139 0 3 0.053000 18.571568 21.978279 22.389601
140 0 2 0.248100 19.539829 23.460056 23.728672
141 0 3 0.053000 20.300552 24.075758 24.232500
142 0 3 0.053000 18.608952 23.351646 23.755043
143 0 3 0.053000 19.868057 23.329021 23.310532
144 0 4 -1.000000 21.950558 24.392670 24.697273
145 0 1 -0.628400 26.032879 23.052155 23.601763
146 0 2 0.248100 27.111284 23.793209 24.365065
147 0 3 0.053000 27.473600 23.850510 24.592922
148 0 3 0.053000 26.773762 24.098976 24.808844
149 0 3 0.053000 28.104174 24.131481 24.412809
150 0 2 0.248100 25.861237 22.648922 23.480925
151 0 3 0.053000 25.427971 22.739828 23.866264
152 0 3 0.053000 26.809582 22.790077 23.505350
153 0 3 0.053000 25.190935 22.034405 22.951807
154 0 2 0.248100 24.946770 22.307640 22.840212
155 0 3 0.053000 24.636099 22.254221 22.600643
156 0 3 0.053000 23.950558 21.994514 22.816570
157 0 3 0.053000 25.239828 21.978279 22.389601
158 0 2 0.248100 26.208090 23.460056 23.728672
159 0 3 0.053000 26.968813 24.075758 24.232500
160 0 3 0.053000 25.277214 23.351646 23.755043
161 0 3 0.053000 26.536318 23.329021 23.310532
162 0 4 -1.000000 28.618818 24.392670 24.697273
163 0 1 -0.628400 32.701141 23.052155 23.601763
164 0 2 0.248100 33.779545 23.793209 24.365065
165 0 3 0.053000 34.141861 23.850510 24.592922
166 0 3 0.053000 33.442024 24.098976 24.808844
167 0 3 0.053000 34.772438 24.131481 24.412809
168 0 2 0.248100 32.529499 22.648922 23.480925
169 0 3 0.053000 32.096230 22.739828 23.866264
170 0 3 0.053000 33.477844 22.790077 23.505350
171 0 3 0.053000 31.859196 22.034405 22.951807
172 0 2 0.248100 31.615032 22.307640 22.840212
173 0 3 0.053000 31.304359 22.254221 22.600643
174 0 3 0.053000 30.618818 21.994514 22.816570
175 0 3 0.053000 31.908091 21.978279 22.389601
176 0 2 0.248100 32.876350 23.460056 23.728672
177 0 3 0.053000 33.637077 24.075758 24.232500
178 0 3 0.053000 31.945475 23.351646 23.755043
179 0 3 0.053000 33.204578 23.329021 23.310532
180 0 4 -1.000000 35.287079 24.392670 24.697273
181 0 1 -0.628400 39.369400 23.052155 23.601763
182 0 2 0.248100 40.447807 23.793209 24.365065
183 0 3 0.053000 40.810123 23.850510 24.592922
184 0 3 0.053000 40.110283 24.098976 24.808844
185 0 3 0.053000 41.440697 24.131481 24.412809
186 0 2 0.248100 39.197762 22.648922 23.480925
187 0 3 0.053000 38.764492 22.739828 23.866264
188 0 3 0.053000 40.146103 22.790077 23.505350
189 0 3 0.053000 38.527458 22.034405 22.951807
190 0 2 0.248100 38.283295 22.307640 22.840212
191 0 3 0.053000 37.972618 22.254221 22.600643
192 0 3 0.053000 37.287079 21.994514 22.816570
193 0 3 0.053000 38.576351 21.978279 22.389601
194 0 2 0.248100 39.544609 23.460056 23.728672
195 0 3 0.053000 40.305336 24.075758 24.232500
196 0 3 0.053000 38.613735 23.351646 23.755043
197 0 3 0.053000 39.872841 23.329021 23.310532
198 0 4 -1.000000 41.955338 24.392670 24.697273
199 0 1 -0.628400 46.037659 23.052155 23.601763
200 0 2 0.248100 47.116066 23.793209 24.365065
201 0 3 0.053000 47.478386 23.850510 24.592922
202 0 3 0.053000 46.778542 24.098976 24.808844
203 0 3 0.053000 48.108955 24.131481 24.412809
204 0 2 0.248100 45.866020 22.648922 23.480925
205 0 3 0.053000 45.432755 22.739828 23.866264
206 0 3 0.053000 46.814362 22.790077 23.505350
207 0 3 0.053000 45.195717 22.034405 22.951807
208 0 2 0.248100 44.951553 22.307640 22.840212
209 0 3 0.053000 44.640884 22.254221 22.600643
210 0 3 0.053000 43.955338 21.994514 22.816570
211 0 3 0.053000 45.244614 21.978279 22.389601
212 0 2 0.248100 46.212875 23.460056 23.728672
213 0 3 0.053000 46.973595 24.075758 24.232500
214 0 3 0.053000 45.281998 23.351646 23.755043
215 0 3 0.053000 46.541100 23.329021 23.310532
216 0 4 -1.000000 48.623604 24.392670 24.697273
217 0 1 -0.628400 12.696358 27.466545 23.601763
218 0 2 0.248100 13.774761 28.207600 24.365065
219 0 3 0.053000 14.137079 28.264900 24.592922
220 0 3 0.053000 13.437239 28.513367 24.808844
221 0 3 0.053000 14.767652 28.545874 24.412809
222 0 2 0.248100 12.524715 27.063313 23.480925
223 0 3 0.053000 12.091448 27.154221 23.866264
224 0 3 0.053000 13.473061 27.204468 23.505350
225 0 3 0.053000 11.854412 26.448795 22.951807
226 0 2 0.248100 11.610249 26.722031 22.840212
227 0 3 0.053000 11.299577 26.668613 22.600643
228 0 3 0.053000 10.614035 26.408905 22.816570
229 0 3 0.053000 11.903306 26.392670 22.389601
230 0 2 0.248100 12.871568 27.874447 23.728672
231 0 3 0.053000 13.632292 28.490150 24.232500
232 0 3 0.053000 11.940691 27.766039 23.755043
233 0 3 0.053000 13.199795 27.743412 23.310532
234 0 4 -1.000000 15.282295 28.807062 24.697273
235 0 1 -0.628400 19.364618 27.466545 23.601763
236 0 2 0.248100 20.443024 28.207600 24.365065
237 0 3 0.053000 20.805340 28.264900 24.592922
238 0 3 0.053000 20.105499 28.513367 24.808844
239 0 3 0.053000 21.435913 28.545874 24.412809
240 0 2 0.248100 19.192976 27.063313 23.480925
241 0 3 0.053000 18.759708 27.154221 23.866264
242 0 3 0.053000 20.141321 27.204468 23.505350
243 0 3 0.053000 18.522675 26.448795 22.951807
244 0 2 0.248100 18.278509 26.722031 22.840212
245 0 3 0.053000 17.967838 26.668613 22.600643
246 0 3 0.053000 17.282295 26.408905 22.816570
247 0 3 0.053000 18.571568 26.392670 22.389601
248 0 2 0.248100 19.539829 27.874447 23.728672
249 0 3 0.053000 20.300552 28.490150 24.232500
250 0 3 0.053000 18.608952 27.766039 23.755043
251 0 3 0.053000 19.868057 27.743412 23.310532
252 0 4 -1.000000 21.950558 28.807062 24.697273
253 0 1 -0.628400 26.032879 27.466545 23.601763
254 0 2 0.248100 27.111284 28.207600 24.365065
255 0 3 0.053000 27.473600 28.264900 24.592922
256 0 3 0.053000 26.773762 28.513367 24.808844
257 0 3 0.053000 28.104174 28.545874 24.412809
258 0 2 0.248100 25.861237 27.063313 23.480925
259 0 3 0.053000 25.427971 27.154221 23.866264
260 0 3 0.053000 26.809582 27.204468 23.505350
261 0 3 0.053000 25.190935 26.448795 22.951807
262 0 2 0.248100 24.946770 26.722031 22.840212
263 0 3 0.053000 24.636099 26.668613 22.600643
264 0 3 0.053000 23.950558 26.408905 22.816570
265 0 3 0.053000 25.239828 26.392670 22.389601
266 0 2 0.248100 26.208090 27.874447 23.728672
267 0 3 0.053000 26.968813 28.490150 24.232500
268 0 3 0.053000 25.277214 27.766039 23.755043
269 0 3 0.053000 26.536318 27.743412 23.310532
270 0 4 -1.000000 28.618818 28.807062 24.697273
271 0 1 -0.628400 32.701141 27.466545 23.601763
272 0 2 0.248100 33.779545 28.207600 24.365065
273 0 3 0.053000 34.141861 28.264900 24.592922
274 0 3 0.053000 33.442024 28.513367 24.808844
275 0 3 0.053000 34.772438 28.545874 24.412809
276 0 2 0.248100 32.529499 27.063313 23.480925
277 0 3 0.053000 32.096230 27.154221 23.866264
278 0 3 0.053000 33.477844 27.204468 23.505350
279 0 3 0.053000 31.859196 26.448795 22.951807
280 0 2 0.248100 31.615032 26.722031 22.840212
281 0 3 0.053000 31.304359 26.668613 22.600643
282 0 3 0.053000 30.618818 26.408905 22.816570
283 0 3 0.053000 31.908091 26.392670 22.389601
284 0 2 0.248100 32.876350 27.874447 23.728672
285 0 3 0.053000 33.637077 28.490150 24.232500
286 0 3 0.053000 31.945475 27.766039 23.755043
287 0 3 0.053000 33.204578 27.743412 23.310532
288 0 4 -1.000000 35.287079 28.807062 24.697273
289 0 1 -0.628400 39.369400 27.466545 23.601763
290 0 2 0.248100 40.447807 28.207600 24.365065
291 0 3 0.053000 40.810123 28.264900 24.592922
292 0 3 0.053000 40.110283 28.513367 24.808844
293 0 3 0.053000 41.440697 28.545874 24.412809
294 0 2 0.248100 39.197762 27.063313 23.480925
295 0 3 0.053000 38.764492 27.154221 23.866264
296 0 3 0.053000 40.146103 27.204468 23.505350
297 0 3 0.053000 38.527458 26.448795 22.951807
298 0 2 0.248100 38.283295 26.722031 22.840212
299 0 3 0.053000 37.972618 26.668613 22.600643
300 0 3 0.053000 37.287079 26.408905 22.816570
301 0 3 0.053000 38.576351 26.392670 22.389601
302 0 2 0.248100 39.544609 27.874447 23.728672
303 0 3 0.053000 40.305336 28.490150 24.232500
304 0 3 0.053000 38.613735 27.766039 23.755043
305 0 3 0.053000 39.872841 27.743412 23.310532
306 0 4 -1.000000 41.955338 28.807062 24.697273
307 0 1 -0.628400 46.037659 27.466545 23.601763
308 0 2 0.248100 47.116066 28.207600 24.365065
309 0 3 0.053000 47.478386 28.264900 24.592922
310 0 3 0.053000 46.778542 28.513367 24.808844
311 0 3 0.053000 48.108955 28.545874 24.412809
312 0 2 0.248100 45.866020 27.063313 23.480925
313 0 3 0.053000 45.432755 27.154221 23.866264
314 0 3 0.053000 46.814362 27.204468 23.505350
315 0 3 0.053000 45.195717 26.448795 22.951807
316 0 2 0.248100 44.951553 26.722031 22.840212
317 0 3 0.053000 44.640884 26.668613 22.600643
318 0 3 0.053000 43.955338 26.408905 22.816570
319 0 3 0.053000 45.244614 26.392670 22.389601
320 0 2 0.248100 46.212875 27.874447 23.728672
321 0 3 0.053000 46.973595 28.490150 24.232500
322 0 3 0.053000 45.281998 27.766039 23.755043
323 0 3 0.053000 46.541100 27.743412 23.310532
324 0 4 -1.000000 48.623604 28.807062 24.697273
325 0 1 -0.628400 12.696358 31.880936 23.601763
326 0 2 0.248100 13.774761 32.621994 24.365065
327 0 3 0.053000 14.137079 32.679291 24.592922
328 0 3 0.053000 13.437239 32.927757 24.808844
329 0 3 0.053000 14.767652 32.960266 24.412809
330 0 2 0.248100 12.524715 31.477705 23.480925
331 0 3 0.053000 12.091448 31.568611 23.866264
332 0 3 0.053000 13.473061 31.618860 23.505350
333 0 3 0.053000 11.854412 30.863188 22.951807
334 0 2 0.248100 11.610249 31.136423 22.840212
335 0 3 0.053000 11.299577 31.083004 22.600643
336 0 3 0.053000 10.614035 30.823298 22.816570
337 0 3 0.053000 11.903306 30.807062 22.389601
338 0 2 0.248100 12.871568 32.288837 23.728672
339 0 3 0.053000 13.632292 32.904541 24.232500
340 0 3 0.053000 11.940691 32.180431 23.755043
341 0 3 0.053000 13.199795 32.157803 23.310532
342 0 4 -1.000000 15.282295 33.221455 24.697273
343 0 1 -0.628400 19.364618 31.880936 23.601763
344 0 2 0.248100 20.443024 32.621994 24.365065
345 0 3 0.053000 20.805340 32.679291 24.592922
346 0 3 0.053000 20.105499 32.927757 24.808844
347 0 3 0.053000 21.435913 32.960266 24.412809
348 0 2 0.248100 19.192976 31.477705 23.480925
349 0 3 0.053000 18.759708 31.568611 23.866264
350 0 3 0.053000 20.141321 31.618860 23.505350
351 0 3 0.053000 18.522675 30.863188 22.951807
352 0 2 0.248100 18.278509 31.136423 22.840212
353 0 3 0.053000 17.967838 31.083004 22.600643
354 0 3 0.053000 17.282295 30.823298 22.816570
355 0 3 0.053000 18.571568 30.807062 22.389601
356 0 2 0.248100 19.539829 32.288837 23.728672
357 0 3 0.053000 20.300552 32.904541 24.232500
358 0 3 0.053000 18.608952 32.180431 23.755043
359 0 3 0.053000 19.868057 32.157803 23.310532
360 0 4 -1.000000 21.950558 33.221455 24.697273
361 0 1 -0.628400 26.032879 31.880936 23.601763
362 0 2 0.248100 27.111284 32.621994 24.365065
363 0 3 0.053000 27.473600 32.679291 24.592922
364 0 3 0.053000 26.773762 32.927757 24.808844
365 0 3 0.053000 28.104174 32.960266 24.412809
366 0 2 0.248100 25.861237 31.477705 23.480925
367 0 3 0.053000 25.427971 31.568611 23.866264
368 0 3 0.053000 26.809582 31.618860 23.505350
369 0 3 0.053000 25.190935 30.863188 22.951807
370 0 2 0.248100 24.946770 31.136423 22.840212
371 0 3 0.053000 24.636099 31.083004 22.600643
372 0 3 0.053000 23.950558 30.823298 22.816570
373 0 3 0.053000 25.239828 30.807062 22.389601
374 0 2 0.248100 26.208090 32.288837 23.728672
375 0 3 0.053000 26.968813 32.904541 24.232500
376 0 3 0.053000 25.277214 32.180431 23.755043
377 0 3 0.053000 26.536318 32.157803 23.310532
378 0 4 -1.000000 28.618818 33.221455 24.697273
379 0 1 -0.628400 32.701141 31.880936 23.601763
380 0 2 0.248100 33.779545 32.621994 24.365065
381 0 3 0.053000 34.141861 32.679291 24.592922
382 0 3 0.053000 33.442024 32.927757 24.808844
383 0 3 0.053000 34.772438 32.960266 24.412809
384 0 2 0.248100 32.529499 31.477705 23.480925
385 0 3 0.053000 32.096230 31.568611 23.866264
386 0 3 0.053000 33.477844 31.618860 23.505350
387 0 3 0.053000 31.859196 30.863188 22.951807
388 0 2 0.248100 31.615032 31.136423 22.840212
389 0 3 0.053000 31.304359 31.083004 22.600643
390 0 3 0.053000 30.618818 30.823298 22.816570
391 0 3 0.053000 31.908091 30.807062 22.389601
392 0 2 0.248100 32.876350 32.288837 23.728672
393 0 3 0.053000 33.637077 32.904541 24.232500
394 0 3 0.053000 31.945475 32.180431 23.755043
395 0 3 0.053000 33.204578 32.157803 23.310532
396 0 4 -1.000000 35.287079 33.221455 24.697273
397 0 1 -0.628400 39.369400 31.880936 23.601763
398 0 2 0.248100 40.447807 32.621994 24.365065
399 0 3 0.053000 40.810123 32.679291 24.592922
400 0 3 0.053000 40.110283 32.927757 24.808844
401 0 3 0.053000 41.440697 32.960266 24.412809
402 0 2 0.248100 39.197762 31.477705 23.480925
403 0 3 0.053000 38.764492 31.568611 23.866264
404 0 3 0.053000 40.146103 31.618860 23.505350
405 0 3 0.053000 38.527458 30.863188 22.951807
406 0 2 0.248100 38.283295 31.136423 22.840212
407 0 3 0.053000 37.972618 31.083004 22.600643
408 0 3 0.053000 37.287079 30.823298 22.816570
409 0 3 0.053000 38.576351 30.807062 22.389601
410 0 2 0.248100 39.544609 32.288837 23.728672
411 0 3 0.053000 40.305336 32.904541 24.232500
412 0 3 0.053000 38.613735 32.180431 23.755043
413 0 3 0.053000 39.872841 32.157803 23.310532
414 0 4 -1.000000 41.955338 33.221455 24.697273
415 0 1 -0.628400 46.037659 31.880936 23.601763
416 0 2 0.248100 47.116066 32.621994 24.365065
417 0 3 0.053000 47.478386 32.679291 24.592922
418 0 3 0.053000 46.778542 32.927757 24.808844
419 0 3 0.053000 48.108955 32.960266 24.412809
420 0 2 0.248100 45.866020 31.477705 23.480925
421 0 3 0.053000 45.432755 31.568611 23.866264
422 0 3 0.053000 46.814362 31.618860 23.505350
423 0 3 0.053000 45.195717 30.863188 22.951807
424 0 2 0.248100 44.951553 31.136423 22.840212
425 0 3 0.053000 44.640884 31.083004 22.600643
426 0 3 0.053000 43.955338 30.823298 22.816570
427 0 3 0.053000 45.244614 30.807062 22.389601
428 0 2 0.248100 46.212875 32.288837 23.728672
429 0 3 0.053000 46.973595 32.904541 24.232500
430 0 3 0.053000 45.281998 32.180431 23.755043
431 0 3 0.053000 46.541100 32.157803 23.310532
432 0 4 -1.000000 48.623604 33.221455 24.697273
433 0 1 -0.628400 12.696358 36.295330 23.601763
434 0 2 0.248100 13.774761 37.036385 24.365065
435 0 3 0.053000 14.137079 37.093685 24.592922
436 0 3 0.053000 13.437239 37.342152 24.808844
437 0 3 0.053000 14.767652 37.374657 24.412809
438 0 2 0.248100 12.524715 35.892097 23.480925
439 0 3 0.053000 12.091448 35.983002 23.866264
440 0 3 0.053000 13.473061 36.033253 23.505350
441 0 3 0.053000 11.854412 35.277580 22.951807
442 0 2 0.248100 11.610249 35.550816 22.840212
443 0 3 0.053000 11.299577 35.497398 22.600643
444 0 3 0.053000 10.614035 35.237690 22.816570
445 0 3 0.053000 11.903306 35.221455 22.389601
446 0 2 0.248100 12.871568 36.703232 23.728672
447 0 3 0.053000 13.632292 37.318932 24.232500
448 0 3 0.053000 11.940691 36.594826 23.755043
449 0 3 0.053000 13.199795 36.572197 23.310532
450 0 4 -1.000000 15.282295 37.635849 24.697273
451 0 1 -0.628400 19.364618 36.295330 23.601763
452 0 2 0.248100 20.443024 37.036385 24.365065
453 0 3 0.053000 20.805340 37.093685 24.592922
454 0 3 0.053000 20.105499 37.342152 24.808844
455 0 3 0.053000 21.435913 37.374657 24.412809
456 0 2 0.248100 19.192976 35.892097 23.480925
457 0 3 0.053000 18.759708 35.983002 23.866264
458 0 3 0.053000 20.141321 36.033253 23.505350
459 0 3 0.053000 18.522675 35.277580 22.951807
460 0 2 0.248100 18.278509 35.550816 22.840212
461 0 3 0.053000 17.967838 35.497398 22.600643
462 0 3 0.053000 17.282295 35.237690 22.816570
463 0 3 0.053000 18.571568 35.221455 22.389601
464 0 2 0.248100 19.539829 36.703232 23.728672
465 0 3 0.053000 20.300552 37.318932 24.232500
466 0 3 0.053000 18.608952 36.594826 23.755043
467 0 3 0.053000 19.868057 36.572197 23.310532
468 0 4 -1.000000 21.950558 37.635849 24.697273
469 0 1 -0.628400 26.032879 36.295330 23.601763
470 0 2 0.248100 27.111284 37.036385 24.365065
471 0 3 0.053000 27.473600 37.093685 24.592922
472 0 3 0.053000 26.773762 37.342152 24.808844
473 0 3 0.053000 28.104174 37.374657 24.412809
474 0 2 0.248100 25.861237 35.892097 23.480925
475 0 3 0.053000 25.427971 35.983002 23.866264
476 0 3 0.053000 26.809582 36.033253 23.505350
477 0 3 0.053000 25.190935 35.277580 22.951807
478 0 2 0.248100 24.946770 35.550816 22.840212
479 0 3 0.053000 24.636099 35.497398 22.600643
480 0 3 0.053000 23.950558 35.237690 22.816570
481 0 3 0.053000 25.239828 35.221455 22.389601
482 0 2 0.248100 26.208090 36.703232 23.728672
483 0 3 0.053000 26.968813 37.318932 24.232500
484 0 3 0.053000 25.277214 36.594826 23.755043
485 0 3 0.053000 26.536318 36.572197 23.310532
486 0 4 -1.000000 28.618818 37.635849 24.697273
487 0 1 -0.628400 32.701141 36.295330 23.601763
488 0 2 0.248100 33.779545 37.036385 24.365065
489 0 3 0.053000 34.141861 37.093685 24.592922
490 0 3 0.053000 33.442024 37.342152 24.808844
491 0 3 0.053000 34.772438 37.374657 24.412809
492 0 2 0.248100 32.529499 35.892097 23.480925
493 0 3 0.053000 32.096230 35.983002 23.866264
494 0 3 0.053000 33.477844 36.033253 23.505350
495 0 3 0.053000 31.859196 35.277580 22.951807
496 0 2 0.248100 31.615032 35.550816 22.840212
497 0 3 0.053000 31.304359 35.497398 22.600643
498 0 3 0.053000 30.618818 35.237690 22.816570
499 0 3 0.053000 31.908091 35.221455 22.389601
500 0 2 0.248100 32.876350 36.703232 23.728672
501 0 3 0.053000 33.637077 37.318932 24.232500
502 0 3 0.053000 31.945475 36.594826 23.755043
503 0 3 0.053000 33.204578 36.572197 23.310532
504 0 4 -1.000000 35.287079 37.635849 24.697273
505 0 1 -0.628400 39.369400 36.295330 23.601763
506 0 2 0.248100 40.447807 37.036385 24.365065
507 0 3 0.053000 40.810123 37.093685 24.592922
508 0 3 0.053000 40.110283 37.342152 24.808844
509 0 3 0.053000 41.440697 37.374657 24.412809
510 0 2 0.248100 39.197762 35.892097 23.480925
511 0 3 0.053000 38.764492 35.983002 23.866264
512 0 3 0.053000 40.146103 36.033253 23.505350
513 0 3 0.053000 38.527458 35.277580 22.951807
514 0 2 0.248100 38.283295 35.550816 22.840212
515 0 3 0.053000 37.972618 35.497398 22.600643
516 0 3 0.053000 37.287079 35.237690 22.816570
517 0 3 0.053000 38.576351 35.221455 22.389601
518 0 2 0.248100 39.544609 36.703232 23.728672
519 0 3 0.053000 40.305336 37.318932 24.232500
520 0 3 0.053000 38.613735 36.594826 23.755043
521 0 3 0.053000 39.872841 36.572197 23.310532
522 0 4 -1.000000 41.955338 37.635849 24.697273
523 0 1 -0.628400 46.037659 36.295330 23.601763
524 0 2 0.248100 47.116066 37.036385 24.365065
525 0 3 0.053000 47.478386 37.093685 24.592922
526 0 3 0.053000 46.778542 37.342152 24.808844
527 0 3 0.053000 48.108955 37.374657 24.412809
528 0 2 0.248100 45.866020 35.892097 23.480925
529 0 3 0.053000 45.432755 35.983002 23.866264
530 0 3 0.053000 46.814362 36.033253 23.505350
531 0 3 0.053000 45.195717 35.277580 22.951807
532 0 2 0.248100 44.951553 35.550816 22.840212
533 0 3 0.053000 44.640884 35.497398 22.600643
534 0 3 0.053000 43.955338 35.237690 22.816570
535 0 3 0.053000 45.244614 35.221455 22.389601
536 0 2 0.248100 46.212875 36.703232 23.728672
537 0 3 0.053000 46.973595 37.318932 24.232500
538 0 3 0.053000 45.281998 36.594826 23.755043
539 0 3 0.053000 46.541100 36.572197 23.310532
540 0 4 -1.000000 48.623604 37.635849 24.697273
541 0 1 -0.628400 12.696358 40.709724 23.601763
542 0 2 0.248100 13.774761 41.450775 24.365065
543 0 3 0.053000 14.137079 41.508080 24.592922
544 0 3 0.053000 13.437239 41.756546 24.808844
545 0 3 0.053000 14.767652 41.789047 24.412809
546 0 2 0.248100 12.524715 40.306488 23.480925
547 0 3 0.053000 12.091448 40.397396 23.866264
548 0 3 0.053000 13.473061 40.447647 23.505350
549 0 3 0.053000 11.854412 39.691971 22.951807
550 0 2 0.248100 11.610249 39.965210 22.840212
551 0 3 0.053000 11.299577 39.911789 22.600643
552 0 3 0.053000 10.614035 39.652084 22.816570
553 0 3 0.053000 11.903306 39.635849 22.389601
554 0 2 0.248100 12.871568 41.117622 23.728672
555 0 3 0.053000 13.632292 41.733330 24.232500
556 0 3 0.053000 11.940691 41.009216 23.755043
557 0 3 0.053000 13.199795 40.986588 23.310532
558 0 4 -1.000000 15.282295 42.050240 24.697273
559 0 1 -0.628400 19.364618 40.709724 23.601763
560 0 2 0.248100 20.443024 41.450775 24.365065
561 0 3 0.053000 20.805340 41.508080 24.592922
562 0 3 0.053000 20.105499 41.756546 24.808844
563 0 3 0.053000 21.435913 41.789047 24.412809
564 0 2 0.248100 19.192976 40.306488 23.480925
565 0 3 0.053000 18.759708 40.397396 23.866264
566 0 3 0.053000 20.141321 40.447647 23.505350
567 0 3 0.053000 18.522675 39.691971 22.951807
568 0 2 0.248100 18.278509 39.965210 22.840212
569 0 3 0.053000 17.967838 39.911789 22.600643
570 0 3 0.053000 17.282295 39.652084 22.816570
571 0 3 0.053000 18.571568 39.635849 22.389601
572 0 2 0.248100 19.539829 41.117622 23.728672
573 0 3 0.053000 20.300552 41.733330 24.232500
574 0 3 0.053000 18.608952 41.009216 23.755043
575 0 3 0.053000 19.868057 40.986588 23.310532
576 0 4 -1.000000 21.950558 42.050240 24.697273
577 0 1 -0.628400 26.032879 40.709724 23.601763
578 0 2 0.248100 27.111284 41.450775 24.365065
579 0 3 0.053000 27.473600 41.508080 24.592922
580 0 3 0.053000 26.773762 41.756546 24.808844
581 0 3 0.053000 28.104174 41.789047 24.412809
582 0 2 0.248100 25.861237 40.306488 23.480925
583 0 3 0.053000 25.427971 40.397396 23.866264
584 0 3 0.053000 26.809582 40.447647 23.505350
585 0 3 0.053000 25.190935 39.691971 22.951807
586 0 2 0.248100 24.946770 39.965210 22.840212
587 0 3 0.053000 24.636099 39.911789 22.600643
588 0 3 0.053000 23.950558 39.652084 22.816570
589 0 3 0.053000 25.239828 39.635849 22.389601
590 0 2 0.248100 26.208090 41.117622 23.728672
591 0 3 0.053000 26.968813 41.733330 24.232500
592 0 3 0.053000 25.277214 41.009216 23.755043
593 0 3 0.053000 26.536318 40.986588 23.310532
594 0 4 -1.000000 28.618818 42.050240 24.697273
595 0 1 -0.628400 32.701141 40.709724 23.601763
596 0 2 0.248100 33.779545 41.450775 24.365065
597 0 3 0.053000 34.141861 41.508080 24.592922
598 0 3 0.053000 33.442024 41.756546 24.808844
599 0 3 0.053000 34.772438 41.789047 24.412809
600 0 2 0.248100 32.529499 40.306488 23.480925
601 0 3 0.053000 32.096230 40.397396 23.866264
602 0 3 0.053000 33.477844 40.447647 23.505350
603 0 3 0.053000 31.859196 39.691971 22.951807
604 0 2 0.248100 31.615032 39.965210 22.840212
605 0 3 0.053000 31.304359 39.911789 22.600643
606 0 3 0.053000 30.618818 39.652084 22.816570
607 0 3 0.053000 31.908091 39.635849 22.389601
608 0 2 0.248100 32.876350 41.117622 23.728672
609 0 3 0.053000 33.637077 41.733330 24.232500
610 0 3 0.053000 31.945475 41.009216 23.755043
611 0 3 0.053000 33.204578 40.986588 23.310532
612 0 4 -1.000000 35.287079 42.050240 24.697273
613 0 1 -0.628400 39.369400 40.709724 23.601763
614 0 2 0.248100 40.447807 41.450775 24.365065
615 0 3 0.053000 40.810123 41.508080 24.592922
616 0 3 0.053000 40.110283 41.756546 24.808844
617 0 3 0.053000 41.440697 41.789047 24.412809
618 0 2 0.248100 39.197762 40.306488 23.480925
619 0 3 0.053000 38.764492 40.397396 23.866264
620 0 3 0.053000 40.146103 40.447647 23.505350
621 0 3 0.053000 38.527458 39.691971 22.951807
622 0 2 0.248100 38.283295 39.965210 22.840212
623 0 3 0.053000 37.972618 39.911789 22.600643
624 0 3 0.053000 37.287079 39.652084 22.816570
625 0 3 0.053000 38.576351 39.635849 22.389601
626 0 2 0.248100 39.544609 41.117622 23.728672
627 0 3 0.053000 40.305336 41.733330 24.232500
628 0 3 0.053000 38.613735 41.009216 23.755043
629 0 3 0.053000 39.872841 40.986588 23.310532
630 0 4 -1.000000 41.955338 42.050240 24.697273
631 0 1 -0.628400 46.037659 40.709724 23.601763