LAMMPS data file containing the original structures and the polarizable gold

7380 atoms
3865 bonds
750 angles
900 dihedrals
0 impropers

6 atom types
3 bond types
3 angle types
1 dihedral types

-3.000000 62.014999 xlo xhi
-3.000000 61.997501 ylo yhi
-3.000000 36.647327 zlo zhi

Masses

1 14.006700
2 12.011150
3 1.007970
4 79.908997
5 195.960000
6 1.000000

Atoms

1 0 1 -0.628400 22.870104 25.297174 23.601763
2 0 2 0.248100 23.948507 26.038229 24.365065
3 0 3 0.053000 24.310825 26.095530 24.592922
4 0 3 0.053000 23.610985 26.343996 24.808844
5 0 3 0.053000 24.941399 26.376501 24.412809
6 0 2 0.248100 22.698462 24.893942 23.480925
7 0 3 0.053000 22.265194 24.984848 23.866264
8 0 3 0.053000 23.646807 25.035097 23.505350
9 0 3 0.053000 22.028158 24.279425 22.951807
10 0 2 0.248100 21.783995 24.552660 22.840212
11 0 3 0.053000 21.473322 24.499241 22.600643
12 0 3 0.053000 20.787781 24.239534 22.816570
13 0 3 0.053000 22.077053 24.223299 22.389601
14 0 2 0.248100 23.045315 25.705076 23.728672
15 0 3 0.053000 23.806038 26.320778 24.232500
16 0 3 0.053000 22.114437 25.596668 23.755043
17 0 3 0.053000 23.373541 25.574041 23.310532
18 0 4 -1.000000 25.456041 26.637691 24.697273
19 0 1 -0.628400 29.538364 25.297174 23.601763
20 0 2 0.248100 30.616768 26.038229 24.365065
21 0 3 0.053000 30.979086 26.095530 24.592922
22 0 3 0.053000 30.279247 26.343996 24.808844
23 0 3 0.053000 31.609659 26.376501 24.412809
24 0 2 0.248100 29.366722 24.893942 23.480925
25 0 3 0.053000 28.933456 24.984848 23.866264
26 0 3 0.053000 30.315067 25.035097 23.505350
27 0 3 0.053000 28.696419 24.279425 22.951807
28 0 2 0.248100 28.452255 24.552660 22.840212
29 0 3 0.053000 28.141584 24.499241 22.600643
30 0 3 0.053000 27.456041 24.239534 22.816570
31 0 3 0.053000 28.745314 24.223299 22.389601
32 0 2 0.248100 29.713575 25.705076 23.728672
33 0 3 0.053000 30.474298 26.320778 24.232500
34 0 3 0.053000 28.782700 25.596668 23.755043
35 0 3 0.053000 30.041801 25.574041 23.310532
36 0 4 -1.000000 32.124302 26.637691 24.697273
37 0 1 -0.628400 36.206627 25.297174 23.601763
38 0 2 0.248100 37.285030 26.038229 24.365065
39 0 3 0.053000 37.647346 26.095530 24.592922
40 0 3 0.053000 36.947510 26.343996 24.808844
41 0 3 0.053000 38.277920 26.376501 24.412809
42 0 2 0.248100 36.034985 24.893942 23.480925
43 0 3 0.053000 35.601715 24.984848 23.866264
44 0 3 0.053000 36.983330 25.035097 23.505350
45 0 3 0.053000 35.364681 24.279425 22.951807
46 0 2 0.248100 35.120514 24.552660 22.840212
47 0 3 0.053000 34.809845 24.499241 22.600643
48 0 3 0.053000 34.124302 24.239534 22.816570
49 0 3 0.053000 35.413574 24.223299 22.389601
50 0 2 0.248100 36.381836 25.705076 23.728672
51 0 3 0.053000 37.142559 26.320778 24.232500
52 0 3 0.053000 35.450958 25.596668 23.755043
53 0 3 0.053000 36.710064 25.574041 23.310532
54 0 4 -1.000000 38.792564 26.637691 24.697273
55 0 1 -0.628400 22.870104 29.711567 23.601763
56 0 2 0.248100 23.948507 30.452621 24.365065
57 0 3 0.053000 24.310825 30.509922 24.592922
58 0 3 0.053000 23.610985 30.758389 24.808844
59 0 3 0.053000 24.941399 30.790894 24.412809
60 0 2 0.248100 22.698462 29.308334 23.480925
61 0 3 0.053000 22.265194 29.399240 23.866264
62 0 3 0.053000 23.646807 29.449490 23.505350
63 0 3 0.053000 22.028158 28.693817 22.951807
64 0 2 0.248100 21.783995 28.967052 22.840212
65 0 3 0.053000 21.473322 28.913633 22.600643
66 0 3 0.053000 20.787781 28.653927 22.816570
67 0 3 0.053000 22.077053 28.637691 22.389601
68 0 2 0.248100 23.045315 30.119469 23.728672
69 0 3 0.053000 23.806038 30.735170 24.232500
70 0 3 0.053000 22.114437 30.011059 23.755043
71 0 3 0.053000 23.373541 29.988434 23.310532
72 0 4 -1.000000 25.456041 31.052082 24.697273
73 0 1 -0.628400 29.538364 29.711567 23.601763
74 0 2 0.248100 30.616768 30.452621 24.365065
75 0 3 0.053000 30.979086 30.509922 24.592922
76 0 3 0.053000 30.279247 30.758389 24.808844
77 0 3 0.053000 31.609659 30.790894 24.412809
78 0 2 0.248100 29.366722 29.308334 23.480925
79 0 3 0.053000 28.933456 29.399240 23.866264
80 0 3 0.053000 30.315067 29.449490 23.505350
81 0 3 0.053000 28.696419 28.693817 22.951807
82 0 2 0.248100 28.452255 28.967052 22.840212
83 0 3 0.053000 28.141584 28.913633 22.600643
84 0 3 0.053000 27.456041 28.653927 22.816570
85 0 3 0.053000 28.745314 28.637691 22.389601
86 0 2 0.248100 29.713575 30.119469 23.728672
87 0 3 0.053000 30.474298 30.735170 24.232500
88 0 3 0.053000 28.782700 30.011059 23.755043
89 0 3 0.053000 30.041801 29.988434 23.310532
90 0 4 -1.000000 32.124302 31.052082 24.697273
91 0 1 -0.628400 36.206627 29.711567 23.601763
92 0 2 0.248100 37.285030 30.452621 24.365065
93 0 3 0.053000 37.647346 30.509922 24.592922
94 0 3 0.053000 36.947510 30.758389 24.808844
95 0 3 0.053000 38.277920 30.790894 24.412809
96 0 2 0.248100 36.034985 29.308334 23.480925
97 0 3 0.053000 35.601715 29.399240 23.866264
98 0 3 0.053000 36.983330 29.449490 23.505350
99 0 3 0.053000 35.364681 28.693817 22.951807
100 0 2 0.248100 35.120514 28.967052 22.840212
101 0 3 0.053000 34.809845 28.913633 22.600643
102 0 3 0.053000 34.124302 28.653927 22.816570
103 0 3 0.053000 35.413574 28.637691 22.389601
104 0 2 0.248100 36.381836 30.119469 23.728672
105 0 3 0.053000 37.142559 30.735170 24.232500
106 0 3 0.053000 35.450958 30.011059 23.755043
107 0 3 0.053000 36.710064 29.988434 23.310532
108 0 4 -1.000000 38.792564 31.052082 24.697273
109 0 1 -0.628400 22.870104 34.125957 23.601763
110 0 2 0.248100 23.948507 34.867012 24.365065
111 0 3 0.053000 24.310825 34.924313 24.592922
112 0 3 0.053000 23.610985 35.172779 24.808844
113 0 3 0.053000 24.941399 35.205284 24.412809
114 0 2 0.248100 22.698462 33.722725 23.480925
115 0 3 0.053000 22.265194 33.813633 23.866264
116 0 3 0.053000 23.646807 33.863880 23.505350
117 0 3 0.053000 22.028158 33.108208 22.951807
118 0 2 0.248100 21.783995 33.381443 22.840212
119 0 3 0.053000 21.473322 33.328026 22.600643
120 0 3 0.053000 20.787781 33.068317 22.816570
121 0 3 0.053000 22.077053 33.052082 22.389601
122 0 2 0.248100 23.045315 34.533859 23.728672
123 0 3 0.053000 23.806038 35.149563 24.232500
124 0 3 0.053000 22.114437 34.425453 23.755043
125 0 3 0.053000 23.373541 34.402824 23.310532
126 0 4 -1.000000 25.456041 35.466476 24.697273
127 0 1 -0.628400 29.538364 34.125957 23.601763
128 0 2 0.248100 30.616768 34.867012 24.365065
129 0 3 0.053000 30.979086 34.924313 24.592922
130 0 3 0.053000 30.279247 35.172779 24.808844
131 0 3 0.053000 31.609659 35.205284 24.412809
132 0 2 0.248100 29.366722 33.722725 23.480925
133 0 3 0.053000 28.933456 33.813633 23.866264
134 0 3 0.053000 30.315067 33.863880 23.505350
135 0 3 0.053000 28.696419 33.108208 22.951807
136 0 2 0.248100 28.452255 33.381443 22.840212
137 0 3 0.053000 28.141584 33.328026 22.600643
138 0 3 0.053000 27.456041 33.068317 22.816570
139 0 3 0.053000 28.745314 33.052082 22.389601
140 0 2 0.248100 29.713575 34.533859 23.728672
141 0 3 0.053000 30.474298 35.149563 24.232500
142 0 3 0.053000 28.782700 34.425453 23.755043
143 0 3 0.053000 30.041801 34.402824 23.310532
144 0 4 -1.000000 32.124302 35.466476 24.697273
145 0 1 -0.628400 36.206627 34.125957 23.601763
146 0 2 0.248100 37.285030 34.867012 24.365065
147 0 3 0.053000 37.647346 34.924313 24.592922
148 0 3 0.053000 36.947510 35.172779 24.808844
149 0 3 0.053000 38.277920 35.205284 24.412809
150 0 2 0.248100 36.034985 33.722725 23.480925
151 0 3 0.053000 35.601715 33.813633 23.866264
152 0 3 0.053000 36.983330 33.863880 23.505350
153 0 3 0.053000 35.364681 33.108208 22.951807
154 0 2 0.248100 35.120514 33.381443 22.840212
155 0 3 0.053000 34.809845 33.328026 22.600643
156 0 3 0.053000 34.124302 33.068317 22.816570
157 0 3 0.053000 35.413574 33.052082 22.389601
158 0 2 0.248100 36.381836 34.533859 23.728672
159 0 3 0.053000 37.142559 35.149563 24.232500
160 0 3 0.053000 35.450958 34.425453 23.755043
161 0 3 0.053000 36.710064 34.402824 23.310532
162 0 4 -1.000000 38.792564 35.466476 24.697273
163 0 1 -0.628400 22.870104 25.297174 28.021006
164 0 2 0.248100 23.948507 26.038229 28.784307
165 0 3 0.053000 24.310825 26.095530 29.012165
166 0 3 0.053000 23.610985 26.343996 29.228085
167 0 3 0.053000 24.941399 26.376501 28.832050
168 0 2 0.248100 22.698462 24.893942 27.900166
169 0 3 0.053000 22.265194 24.984848 28.285507
170 0 3 0.053000 23.646807 25.035097 27.924591
171 0 3 0.053000 22.028158 24.279425 27.371050
172 0 2 0.248100 21.783995 24.552660 27.259453
173 0 3 0.053000 21.473322 24.499241 27.019886
174 0 3 0.053000 20.787781 24.239534 27.235813
175 0 3 0.053000 22.077053 24.223299 26.808844
176 0 2 0.248100 23.045315 25.705076 28.147915
177 0 3 0.053000 23.806038 26.320778 28.651741
178 0 3 0.053000 22.114437 25.596668 28.174286
179 0 3 0.053000 23.373541 25.574041 27.729774
180 0 4 -1.000000 25.456041 26.637691 29.116516
181 0 1 -0.628400 29.538364 25.297174 28.021006
182 0 2 0.248100 30.616768 26.038229 28.784307
183 0 3 0.053000 30.979086 26.095530 29.012165
184 0 3 0.053000 30.279247 26.343996 29.228085
185 0 3 0.053000 31.609659 26.376501 28.832050
186 0 2 0.248100 29.366722 24.893942 27.900166
187 0 3 0.053000 28.933456 24.984848 28.285507
188 0 3 0.053000 30.315067 25.035097 27.924591
189 0 3 0.053000 28.696419 24.279425 27.371050
190 0 2 0.248100 28.452255 24.552660 27.259453
191 0 3 0.053000 28.141584 24.499241 27.019886
192 0 3 0.053000 27.456041 24.239534 27.235813
193 0 3 0.053000 28.745314 24.223299 26.808844
194 0 2 0.248100 29.713575 25.705076 28.147915
195 0 3 0.053000 30.474298 26.320778 28.651741
196 0 3 0.053000 28.782700 25.596668 28.174286
197 0 3 0.053000 30.041801 25.574041 27.729774
198 0 4 -1.000000 32.124302 26.637691 29.116516
199 0 1 -0.628400 36.206627 25.297174 28.021006
200 0 2 0.248100 37.285030 26.038229 28.784307
201 0 3 0.053000 37.647346 26.095530 29.012165
202 0 3 0.053000 36.947510 26.343996 29.228085
203 0 3 0.053000 38.277920 26.376501 28.832050
204 0 2 0.248100 36.034985 24.893942 27.900166
205 0 3 0.053000 35.601715 24.984848 28.285507
206 0 3 0.053000 36.983330 25.035097 27.924591
207 0 3 0.053000 35.364681 24.279425 27.371050
208 0 2 0.248100 35.120514 24.552660 27.259453
209 0 3 0.053000 34.809845 24.499241 27.019886
210 0 3 0.053000 34.124302 24.239534 27.235813
211 0 3 0.053000 35.413574 24.223299 26.808844
212 0 2 0.248100 36.381836 25.705076 28.147915
213 0 3 0.053000 37.142559 26.320778 28.651741
214 0 3 0.053000 35.450958 25.596668 28.174286
215 0 3 0.053000 36.710064 25.574041 27.729774
216 0 4 -1.000000 38.792564 26.637691 29.116516
217 0 1 -0.628400 22.870104 29.711567 28.021006
218 0 2 0.248100 23.948507 30.452621 28.784307
219 0 3 0.053000 24.310825 30.509922 29.012165
220 0 3 0.053000 23.610985 30.758389 29.228085
221 0 3 0.053000 24.941399 30.790894 28.832050
222 0 2 0.248100 22.698462 29.308334 27.900166
223 0 3 0.053000 22.265194 29.399240 28.285507
224 0 3 0.053000 23.646807 29.449490 27.924591
225 0 3 0.053000 22.028158 28.693817 27.371050
226 0 2 0.248100 21.783995 28.967052 27.259453
227 0 3 0.053000 21.473322 28.913633 27.019886
228 0 3 0.053000 20.787781 28.653927 27.235813
229 0 3 0.053000 22.077053 28.637691 26.808844
230 0 2 0.248100 23.045315 30.119469 28.147915
231 0 3 0.053000 23.806038 30.735170 28.651741
232 0 3 0.053000 22.114437 30.011059 28.174286
233 0 3 0.053000 23.373541 29.988434 27.729774
234 0 4 -1.000000 25.456041 31.052082 29.116516
235 0 1 -0.628400 29.538364 29.711567 28.021006
236 0 2 0.248100 30.616768 30.452621 28.784307
237 0 3 0.053000 30.979086 30.509922 29.012165
238 0 3 0.053000 30.279247 30.758389 29.228085
239 0 3 0.053000 31.609659 30.790894 28.832050
240 0 2 0.248100 29.366722 29.308334 27.900166
241 0 3 0.053000 28.933456 29.399240 28.285507
242 0 3 0.053000 30.315067 29.449490 27.924591
243 0 3 0.053000 28.696419 28.693817 27.371050
244 0 2 0.248100 28.452255 28.967052 27.259453
245 0 3 0.053000 28.141584 28.913633 27.019886
246 0 3 0.053000 27.456041 28.653927 27.235813
247 0 3 0.053000 28.745314 28.637691 26.808844
248 0 2 0.248100 29.713575 30.119469 28.147915
249 0 3 0.053000 30.474298 30.735170 28.651741
250 0 3 0.053000 28.782700 30.011059 28.174286
251 0 3 0.053000 30.041801 29.988434 27.729774
252 0 4 -1.000000 32.124302 31.052082 29.116516
253 0 1 -0.628400 36.206627 29.711567 28.021006
254 0 2 0.248100 37.285030 30.452621 28.784307
255 0 3 0.053000 37.647346 30.509922 29.012165
256 0 3 0.053000 36.947510 30.758389 29.228085
257 0 3 0.053000 38.277920 30.790894 28.832050
258 0 2 0.248100 36.034985 29.308334 27.900166
259 0 3 0.053000 35.601715 29.399240 28.285507
260 0 3 0.053000 36.983330 29.449490 27.924591
261 0 3 0.053000 35.364681 28.693817 27.371050
262 0 2 0.248100 35.120514 28.967052 27.259453
263 0 3 0.053000 34.809845 28.913633 27.019886
264 0 3 0.053000 34.124302 28.653927 27.235813
265 0 3 0.053000 35.413574 28.637691 26.808844
266 0 2 0.248100 36.381836 30.119469 28.147915
267 0 3 0.053000 37.142559 30.735170 28.651741
268 0 3 0.053000 35.450958 30.011059 28.174286
269 0 3 0.053000 36.710064 29.988434 27.729774
270 0 4 -1.000000 38.792564 31.052082 29.116516
271 0 1 -0.628400 22.870104 34.125957 28.021006
272 0 2 0.248100 23.948507 34.867012 28.784307
273 0 3 0.053000 24.310825 34.924313 29.012165
274 0 3 0.053000 23.610985 35.172779 29.228085
275 0 3 0.053000 24.941399 35.205284 28.832050
276 0 2 0.248100 22.698462 33.722725 27.900166
277 0 3 0.053000 22.265194 33.813633 28.285507
278 0 3 0.053000 23.646807 33.863880 27.924591
279 0 3 0.053000 22.028158 33.108208 27.371050
280 0 2 0.248100 21.783995 33.381443 27.259453
281 0 3 0.053000 21.473322 33.328026 27.019886
282 0 3 0.053000 20.787781 33.068317 27.235813
283 0 3 0.053000 22.077053 33.052082 26.808844
284 0 2 0.248100 23.045315 34.533859 28.147915
285 0 3 0.053000 23.806038 35.149563 28.651741
286 0 3 0.053000 22.114437 34.425453 28.174286
287 0 3 0.053000 23.373541 34.402824 27.729774
288 0 4 -1.000000 25.456041 35.466476 29.116516
289 0 1 -0.628400 29.538364 34.125957 28.021006
290 0 2 0.248100 30.616768 34.867012 28.784307
291 0 3 0.053000 30.979086 34.924313 29.012165
292 0 3 0.053000 30.279247 35.172779 29.228085
293 0 3 0.053000 31.609659 35.205284 28.832050
294 0 2 0.248100 29.366722 33.722725 27.900166
295 0 3 0.053000 28.933456 33.813633 28.285507
296 0 3 0.053000 30.315067 33.863880 27.924591
297 0 3 0.053000 28.696419 33.108208 27.371050
298 0 2 0.248100 28.452255 33.381443 27.259453
299 0 3 0.053000 28.141584 33.328026 27.019886
300 0 3 0.053000 27.456041 33.068317 27.235813
301 0 3 0.053000 28.745314 33.052082 26.808844
302 0 2 0.248100 29.713575 34.533859 28.147915
303 0 3 0.053000 30.474298 35.149563 28.651741
304 0 3 0.053000 28.782700 34.425453 28.174286
305 0 3 0.053000 30.041801 34.402824 27.729774
306 0 4 -1.000000 32.124302 35.466476 29.116516
307 0 1 -0.628400 36.206627 34.125957 28.021006
308 0 2 0.248100 37.285030 34.867012 28.784307
309 0 3 0.053000 37.647346 34.924313 29.012165
310 0 3 0.053000 36.947510 35.172779 29.228085
311 0 3 0.053000 38.277920 35.205284 28.832050
312 0 2 0.248100 36.034985 33.722725 27.900166
313 0 3 0.053000 35.601715 33.813633 28.285507
314 0 3 0.053000 36.983330 33.863880 27.924591
315 0 3 0.053000 35.364681 33.108208 27.371050
316 0 2 0.248100 35.120514 33.381443 27.259453
317 0 3 0.053000 34.809845 33.328026 27.019886
318 0 3 0.053000 34.124302 33.068317 27.235813
319 0 3 0.053000 35.413574 33.052082 26.808844
320 0 2 0.248100 36.381836 34.533859 28.147915
321 0 3 0.053000 37.142559 35.149563 28.651741
322 0 3 0.053000 35.450958 34.425453 28.174286
323 0 3 0.053000 36.710064 34.402824 27.729774
324 0 4 -1.000000 38.792564 35.466476 29.116516
325 0 1 -0.628400 22.870104 25.297174 32.440247
326 0 2 0.248100 23.948507 26.038229 33.203552
327 0 3 0.053000 24.310825 26.095530 33.431408
328 0 3 0.053000 23.610985 26.343996 33.647327
329 0 3 0.053000 24.941399 26.376501 33.251293
330 0 2 0.248100 22.698462 24.893942 32.319408
331 0 3 0.053000 22.265194 24.984848 32.704750
332 0 3 0.053000 23.646807 25.035097 32.343834
333 0 3 0.053000 22.028158 24.279425 31.790291
334 0 2 0.248100 21.783995 24.552660 31.678696
335 0 3 0.053000 21.473322 24.499241 31.439129
336 0 3 0.053000 20.787781 24.239534 31.655056
337 0 3 0.053000 22.077053 24.223299 31.228085
338 0 2 0.248100 23.045315 25.705076 32.567154
339 0 3 0.053000 23.806038 26.320778 33.070984
340 0 3 0.053000 22.114437 25.596668 32.593529
341 0 3 0.053000 23.373541 25.574041 32.149017
342 0 4 -1.000000 25.456041 26.637691 33.535759
343 0 1 -0.628400 29.538364 25.297174 32.440247
344 0 2 0.248100 30.616768 26.038229 33.203552
345 0 3 0.053000 30.979086 26.095530 33.431408
346 0 3 0.053000 30.279247 26.343996 33.647327
347 0 3 0.053000 31.609659 26.376501 33.251293
348 0 2 0.248100 29.366722 24.893942 32.319408
349 0 3 0.053000 28.933456 24.984848 32.704750
350 0 3 0.053000 30.315067 25.035097 32.343834
351 0 3 0.053000 28.696419 24.279425 31.790291
352 0 2 0.248100 28.452255 24.552660 31.678696
353 0 3 0.053000 28.141584 24.499241 31.439129
354 0 3 0.053000 27.456041 24.239534 31.655056
355 0 3 0.053000 28.745314 24.223299 31.228085
356 0 2 0.248100 29.713575 25.705076 32.567154
357 0 3 0.053000 30.474298 26.320778 33.070984
358 0 3 0.053000 28.782700 25.596668 32.593529
359 0 3 0.053000 30.041801 25.574041 32.149017
360 0 4 -1.000000 32.124302 26.637691 33.535759
361 0 1 -0.628400 36.206627 25.297174 32.440247
362 0 2 0.248100 37.285030 26.038229 33.203552
363 0 3 0.053000 37.647346 26.095530 33.431408
364 0 3 0.053000 36.947510 26.343996 33.647327
365 0 3 0.053000 38.277920 26.376501 33.251293
366 0 2 0.248100 36.034985 24.893942 32.319408
367 0 3 0.053000 35.601715 24.984848 32.704750
368 0 3 0.053000 36.983330 25.035097 32.343834
369 0 3 0.053000 35.364681 24.279425 31.790291
370 0 2 0.248100 35.120514 24.552660 31.678696
371 0 3 0.053000 34.809845 24.499241 31.439129
372 0 3 0.053000 34.124302 24.239534 31.655056
373 0 3 0.053000 35.413574 24.223299 31.228085
374 0 2 0.248100 36.381836 25.705076 32.567154
375 0 3 0.053000 37.142559 26.320778 33.070984
376 0 3 0.053000 35.450958 25.596668 32.593529
377 0 3 0.053000 36.710064 25.574041 32.149017
378 0 4 -1.000000 38.792564 26.637691 33.535759
379 0 1 -0.628400 22.870104 29.711567 32.440247
380 0 2 0.248100 23.948507 30.452621 33.203552
381 0 3 0.053000 24.310825 30.509922 33.431408
382 0 3 0.053000 23.610985 30.758389 33.647327
383 0 3 0.053000 24.941399 30.790894 33.251293
384 0 2 0.248100 22.698462 29.308334 32.319408
385 0 3 0.053000 22.265194 29.399240 32.704750
386 0 3 0.053000 23.646807 29.449490 32.343834
387 0 3 0.053000 22.028158 28.693817 31.790291
388 0 2 0.248100 21.783995 28.967052 31.678696
389 0 3 0.053000 21.473322 28.913633 31.439129
390 0 3 0.053000 20.787781 28.653927 31.655056
391 0 3 0.053000 22.077053 28.637691 31.228085
392 0 2 0.248100 23.045315 30.119469 32.567154
393 0 3 0.053000 23.806038 30.735170 33.070984
394 0 3 0.053000 22.114437 30.011059 32.593529
395 0 3 0.053000 23.373541 29.988434 32.149017
396 0 4 -1.000000 25.456041 31.052082 33.535759
397 0 1 -0.628400 29.538364 29.711567 32.440247
398 0 2 0.248100 30.616768 30.452621 33.203552
399 0 3 0.053000 30.979086 30.509922 33.431408
400 0 3 0.053000 30.279247 30.758389 33.647327
401 0 3 0.053000 31.609659 30.790894 33.251293
402 0 2 0.248100 29.366722 29.308334 32.319408
403 0 3 0.053000 28.933456 29.399240 32.704750
404 0 3 0.053000 30.315067 29.449490 32.343834
405 0 3 0.053000 28.696419 28.693817 31.790291
406 0 2 0.248100 28.452255 28.967052 31.678696
407 0 3 0.053000 28.141584 28.913633 31.439129
408 0 3 0.053000 27.456041 28.653927 31.655056
409 0 3 0.053000 28.745314 28.637691 31.228085
410 0 2 0.248100 29.713575 30.119469 32.567154
411 0 3 0.053000 30.474298 30.735170 33.070984
412 0 3 0.053000 28.782700 30.011059 32.593529
413 0 3 0.053000 30.041801 29.988434 32.149017
414 0 4 -1.000000 32.124302 31.052082 33.535759
415 0 1 -0.628400 36.206627 29.711567 32.440247
416 0 2 0.248100 37.285030 30.452621 33.203552
417 0 3 0.053000 37.647346 30.509922 33.431408
418 0 3 0.053000 36.947510 30.758389 33.647327
419 0 3 0.053000 38.277920 30.790894 33.251293
420 0 2 0.248100 36.034985 29.308334 32.319408
421 0 3 0.053000 35.601715 29.399240 32.704750
422 0 3 0.053000 36.983330 29.449490 32.343834
423 0 3 0.053000 35.364681 28.693817 31.790291
424 0 2 0.248100 35.120514 28.967052 31.678696
425 0 3 0.053000 34.809845 28.913633 31.439129
426 0 3 0.053000 34.124302 28.653927 31.655056
427 0 3 0.053000 35.413574 28.637691 31.228085
428 0 2 0.248100 36.381836 30.119469 32.567154
429 0 3 0.053000 37.142559 30.735170 33.070984
430 0 3 0.053000 35.450958 30.011059 32.593529
431 0 3 0.053000 36.710064 29.988434 32.149017
432 0 4 -1.000000 38.792564 31.052082 33.535759
433 0 1 -0.628400 22.870104 34.125957 32.440247
434 0 2 0.248100 23.948507 34.867012 33.203552
435 0 3 0.053000 24.310825 34.924313 33.431408
436 0 3 0.053000 23.610985 35.172779 33.647327
437 0 3 0.053000 24.941399 35.205284 33.251293
438 0 2 0.248100 22.698462 33.722725 32.319408
439 0 3 0.053000 22.265194 33.813633 32.704750
440 0 3 0.053000 23.646807 33.863880 32.343834
441 0 3 0.053000 22.028158 33.108208 31.790291
442 0 2 0.248100 21.783995 33.381443 31.678696
443 0 3 0.053000 21.473322 33.328026 31.439129
444 0 3 0.053000 20.787781 33.068317 31.655056
445 0 3 0.053000 22.077053 33.052082 31.228085
446 0 2 0.248100 23.045315 34.533859 32.567154
447 0 3 0.053000 23.806038 35.149563 33.070984
448 0 3 0.053000 22.114437 34.425453 32.593529
449 0 3 0.053000 23.373541 34.402824 32.149017
450 0 4 -1.000000 25.456041 35.466476 33.535759
451 1 5 1.0 0.000000 54.680599 0.000000
452 1 5 1.0 0.000000 57.558498 0.000000
453 1 5 1.0 0.000000 57.558498 2.877920
454 1 5 1.0 2.035000 58.997501 1.438960
455 1 5 1.0 2.035000 56.119499 1.438960
456 1 5 1.0 2.035000 58.997501 4.316890
457 1 5 1.0 0.000000 48.924702 0.000000
458 1 5 1.0 0.000000 51.802601 0.000000
459 1 5 1.0 0.000000 51.802601 2.877920
460 1 5 1.0 2.035000 53.241600 1.438960
461 1 5 1.0 2.035000 50.363701 1.438960
462 1 5 1.0 0.000000 54.680599 2.877920
463 1 5 1.0 0.000000 54.680599 5.755850
464 1 5 1.0 2.035000 56.119499 4.316890
465 1 5 1.0 2.035000 53.241600 4.316890
466 1 5 1.0 0.000000 57.558498 5.755850
467 1 5 1.0 0.000000 57.558498 8.633770
468 1 5 1.0 2.035000 58.997501 7.194810
469 1 5 1.0 2.035000 56.119499 7.194810
470 1 5 1.0 2.035000 58.997501 10.072700
471 1 5 1.0 0.000000 43.168900 0.000000
472 1 5 1.0 0.000000 46.046799 0.000000
473 1 5 1.0 0.000000 46.046799 2.877920
474 1 5 1.0 2.035000 47.485802 1.438960
475 1 5 1.0 2.035000 44.607800 1.438960
476 1 5 1.0 0.000000 48.924702 2.877920
477 1 5 1.0 0.000000 48.924702 5.755850
478 1 5 1.0 2.035000 50.363701 4.316890
479 1 5 1.0 2.035000 47.485802 4.316890
480 1 5 1.0 0.000000 51.802601 5.755850
481 1 5 1.0 0.000000 51.802601 8.633770
482 1 5 1.0 2.035000 53.241600 7.194810
483 1 5 1.0 2.035000 50.363701 7.194810
484 1 5 1.0 0.000000 54.680599 8.633770
485 1 5 1.0 0.000000 54.680599 11.511700
486 1 5 1.0 2.035000 56.119499 10.072700
487 1 5 1.0 2.035000 53.241600 10.072700
488 1 5 1.0 0.000000 57.558498 11.511700
489 1 5 1.0 0.000000 57.558498 14.389600
490 1 5 1.0 2.035000 58.997501 12.950700
491 1 5 1.0 2.035000 56.119499 12.950700
492 1 5 1.0 0.000000 37.412998 0.000000
493 1 5 1.0 0.000000 40.290901 0.000000
494 1 5 1.0 0.000000 40.290901 2.877920
495 1 5 1.0 2.035000 41.729900 1.438960
496 1 5 1.0 2.035000 38.852001 1.438960
497 1 5 1.0 0.000000 43.168900 2.877920
498 1 5 1.0 0.000000 43.168900 5.755850
499 1 5 1.0 2.035000 44.607800 4.316890
500 1 5 1.0 2.035000 41.729900 4.316890
501 1 5 1.0 0.000000 46.046799 5.755850
502 1 5 1.0 0.000000 46.046799 8.633770
503 1 5 1.0 2.035000 47.485802 7.194810
504 1 5 1.0 2.035000 44.607800 7.194810
505 1 5 1.0 0.000000 48.924702 8.633770
506 1 5 1.0 0.000000 48.924702 11.511700
507 1 5 1.0 2.035000 50.363701 10.072700
508 1 5 1.0 2.035000 47.485802 10.072700
509 1 5 1.0 0.000000 51.802601 11.511700
510 1 5 1.0 0.000000 51.802601 14.389600
511 1 5 1.0 2.035000 53.241600 12.950700
512 1 5 1.0 2.035000 50.363701 12.950700
513 1 5 1.0 0.000000 54.680599 14.389600
514 1 5 1.0 0.000000 31.657200 0.000000
515 1 5 1.0 0.000000 34.535099 0.000000
516 1 5 1.0 0.000000 34.535099 2.877920
517 1 5 1.0 2.035000 35.974098 1.438960
518 1 5 1.0 2.035000 33.096100 1.438960
519 1 5 1.0 0.000000 37.412998 2.877920
520 1 5 1.0 0.000000 37.412998 5.755850
521 1 5 1.0 2.035000 38.852001 4.316890
522 1 5 1.0 2.035000 35.974098 4.316890
523 1 5 1.0 0.000000 40.290901 5.755850
524 1 5 1.0 0.000000 40.290901 8.633770
525 1 5 1.0 2.035000 41.729900 7.194810
526 1 5 1.0 2.035000 38.852001 7.194810
527 1 5 1.0 0.000000 43.168900 8.633770
528 1 5 1.0 0.000000 43.168900 11.511700
529 1 5 1.0 2.035000 44.607800 10.072700
530 1 5 1.0 2.035000 41.729900 10.072700
531 1 5 1.0 0.000000 46.046799 11.511700
532 1 5 1.0 0.000000 46.046799 14.389600
533 1 5 1.0 2.035000 47.485802 12.950700
534 1 5 1.0 2.035000 44.607800 12.950700
535 1 5 1.0 0.000000 48.924702 14.389600
536 1 5 1.0 0.000000 25.901300 0.000000
537 1 5 1.0 0.000000 28.779200 0.000000
538 1 5 1.0 0.000000 28.779200 2.877920
539 1 5 1.0 2.035000 30.218201 1.438960
540 1 5 1.0 2.035000 27.340300 1.438960
541 1 5 1.0 0.000000 31.657200 2.877920
542 1 5 1.0 0.000000 31.657200 5.755850
543 1 5 1.0 2.035000 33.096100 4.316890
544 1 5 1.0 2.035000 30.218201 4.316890
545 1 5 1.0 0.000000 34.535099 5.755850
546 1 5 1.0 0.000000 34.535099 8.633770
547 1 5 1.0 2.035000 35.974098 7.194810
548 1 5 1.0 2.035000 33.096100 7.194810
549 1 5 1.0 0.000000 37.412998 8.633770
550 1 5 1.0 0.000000 37.412998 11.511700
551 1 5 1.0 2.035000 38.852001 10.072700
552 1 5 1.0 2.035000 35.974098 10.072700
553 1 5 1.0 0.000000 40.290901 11.511700
554 1 5 1.0 0.000000 40.290901 14.389600
555 1 5 1.0 2.035000 41.729900 12.950700
556 1 5 1.0 2.035000 38.852001 12.950700
557 1 5 1.0 0.000000 43.168900 14.389600
558 1 5 1.0 0.000000 20.145500 0.000000
559 1 5 1.0 0.000000 23.023399 0.000000
560 1 5 1.0 0.000000 23.023399 2.877920
561 1 5 1.0 2.035000 24.462400 1.438960
562 1 5 1.0 2.035000 21.584400 1.438960
563 1 5 1.0 0.000000 25.901300 2.877920
564 1 5 1.0 0.000000 25.901300 5.755850
565 1 5 1.0 2.035000 27.340300 4.316890
566 1 5 1.0 2.035000 24.462400 4.316890
567 1 5 1.0 0.000000 28.779200 5.755850
568 1 5 1.0 0.000000 28.779200 8.633770
569 1 5 1.0 2.035000 30.218201 7.194810
570 1 5 1.0 2.035000 27.340300 7.194810
571 1 5 1.0 0.000000 31.657200 8.633770
572 1 5 1.0 0.000000 31.657200 11.511700
573 1 5 1.0 2.035000 33.096100 10.072700
574 1 5 1.0 2.035000 30.218201 10.072700
575 1 5 1.0 0.000000 34.535099 11.511700
576 1 5 1.0 0.000000 34.535099 14.389600
577 1 5 1.0 2.035000 35.974098 12.950700
578 1 5 1.0 2.035000 33.096100 12.950700
579 1 5 1.0 0.000000 37.412998 14.389600
580 1 5 1.0 0.000000 14.389600 0.000000
581 1 5 1.0 0.000000 17.267500 0.000000
582 1 5 1.0 0.000000 17.267500 2.877920
583 1 5 1.0 2.035000 18.706499 1.438960
584 1 5 1.0 2.035000 15.828600 1.438960
585 1 5 1.0 0.000000 20.145500 2.877920
586 1 5 1.0 0.000000 20.145500 5.755850
587 1 5 1.0 2.035000 21.584400 4.316890
588 1 5 1.0 2.035000 18.706499 4.316890
589 1 5 1.0 0.000000 23.023399 5.755850
590 1 5 1.0 0.000000 23.023399 8.633770
591 1 5 1.0 2.035000 24.462400 7.194810
592 1 5 1.0 2.035000 21.584400 7.194810
593 1 5 1.0 0.000000 25.901300 8.633770
594 1 5 1.0 0.000000 25.901300 11.511700
595 1 5 1.0 2.035000 27.340300 10.072700
596 1 5 1.0 2.035000 24.462400 10.072700
597 1 5 1.0 0.000000 28.779200 11.511700
598 1 5 1.0 0.000000 28.779200 14.389600
599 1 5 1.0 2.035000 30.218201 12.950700
600 1 5 1.0 2.035000 27.340300 12.950700
601 1 5 1.0 0.000000 31.657200 14.389600
602 1 5 1.0 0.000000 8.633770 0.000000
603 1 5 1.0 0.000000 11.511700 0.000000
604 1 5 1.0 0.000000 11.511700 2.877920
605 1 5 1.0 2.035000 12.950700 1.438960
606 1 5 1.0 2.035000 10.072700 1.438960
607 1 5 1.0 0.000000 14.389600 2.877920
608 1 5 1.0 0.000000 14.389600 5.755850
609 1 5 1.0 2.035000 15.828600 4.316890
610 1 5 1.0 2.035000 12.950700 4.316890
611 1 5 1.0 0.000000 17.267500 5.755850
612 1 5 1.0 0.000000 17.267500 8.633770
613 1 5 1.0 2.035000 18.706499 7.194810
614 1 5 1.0 2.035000 15.828600 7.194810
615 1 5 1.0 0.000000 20.145500 8.633770
616 1 5 1.0 0.000000 20.145500 11.511700
617 1 5 1.0 2.035000 21.584400 10.072700
618 1 5 1.0 2.035000 18.706499 10.072700
619 1 5 1.0 0.000000 23.023399 11.511700
620 1 5 1.0 0.000000 23.023399 14.389600
621 1 5 1.0 2.035000 24.462400 12.950700
622 1 5 1.0 2.035000 21.584400 12.950700
623 1 5 1.0 0.000000 25.901300 14.389600
624 1 5 1.0 0.000000 2.877920 0.000000
625 1 5 1.0 0.000000 5.755850 0.000000
626 1 5 1.0 0.000000 5.755850 2.877920
627 1 5 1.0 2.035000 7.194810 1.438960
628 1 5 1.0 2.035000 4.316890 1.438960
629 1 5 1.0 0.000000 8.633770 2.877920
630 1 5 1.0 0.000000 8.633770 5.755850
631 1 5 1.0 2.035000 10.072700 4.316890
632 1 5 1.0 2.035000 7.194810 4.316890
633 1 5 1.0 0.000000 11.511700 5.755850
634 1 5 1.0 0.000000 11.511700 8.633770
635 1 5 1.0 2.035000 12.950700 7.194810
636 1 5 1.0 2.035000 10.072700 7.194810
637 1 5 1.0 0.000000 14.389600 8.633770
638 1 5 1.0 0.000000 14.389600 11.511700
639 1 5 1.0 2.035000 15.828600 10.072700
640 1 5 1.0 2.035000 12.950700 10.072700
641 1 5 1.0 0.000000 17.267500 11.511700
642 1 5 1.0 0.000000 17.267500 14.389600
643 1 5 1.0 2.035000 18.706499 12.950700
644 1 5 1.0 2.035000 15.828600 12.950700
645 1 5 1.0 0.000000 20.145500 14.389600
646 1 5 1.0 0.000000 0.000000 0.000000
647 1 5 1.0 0.000000 0.000000 2.877920
648 1 5 1.0 2.035000 1.438960 1.438960
649 1 5 1.0 0.000000 2.877920 2.877920
650 1 5 1.0 0.000000 2.877920 5.755850
651 1 5 1.0 2.035000 4.316890 4.316890
652 1 5 1.0 2.035000 1.438960 4.316890
653 1 5 1.0 0.000000 5.755850 5.755850
654 1 5 1.0 0.000000 5.755850 8.633770
655 1 5 1.0 2.035000 7.194810 7.194810
656 1 5 1.0 2.035000 4.316890 7.194810
657 1 5 1.0 0.000000 8.633770 8.633770
658 1 5 1.0 0.000000 8.633770 11.511700
659 1 5 1.0 2.035000 10.072700 10.072700
660 1 5 1.0 2.035000 7.194810 10.072700
661 1 5 1.0 0.000000 11.511700 11.511700
662 1 5 1.0 0.000000 11.511700 14.389600